<preamble>

<basis_specs>
===============================================================================
Mo                   Z=  42    Mass=  95.950        Charge= 0.17977+309
Lmxo=2 Lmxkb= 2    BasisType=split      Semic=T
L=0  Nsemic=1  Cnfigmx=5
          i=1  nzeta=1  polorb=0  (4s)  (semicore shell)
            splnorm:   0.15000    
               vcte:    0.0000    
               rinn:    0.0000    
               qcoe:    0.0000    
               qyuk:    0.0000    
               qwid:   0.10000E-01
                rcs:    2.7600    
            lambdas:    1.0000    
          i=2  nzeta=2  polorb=0  (5s)  (to be polarized non-perturbatively)
            splnorm:   0.15000    
               vcte:    0.0000    
               rinn:    0.0000    
               qcoe:    0.0000    
               qyuk:    0.0000    
               qwid:   0.10000E-01
                rcs:    7.0810      5.6016    
            lambdas:    1.0000      1.0000    
L=1  Nsemic=1  Cnfigmx=5
          i=1  nzeta=1  polorb=0  (4p)  (semicore shell)
            splnorm:   0.15000    
               vcte:    0.0000    
               rinn:    0.0000    
               qcoe:    0.0000    
               qyuk:    0.0000    
               qwid:   0.10000E-01
                rcs:    3.1256    
            lambdas:    1.0000    
          i=2  nzeta=1  polorb=0  (5p)  (non-perturbative polarization shell)
            splnorm:   0.15000    
               vcte:    0.0000    
               rinn:    0.0000    
               qcoe:    0.0000    
               qyuk:    0.0000    
               qwid:   0.10000E-01
                rcs:    7.0810    
            lambdas:    1.0000    
L=2  Nsemic=0  Cnfigmx=4
          i=1  nzeta=2  polorb=0  (4d)
            splnorm:   0.15000    
               vcte:    0.0000    
               rinn:    0.0000    
               qcoe:    0.0000    
               qyuk:    0.0000    
               qwid:   0.10000E-01
                rcs:    5.0777      3.6918    
            lambdas:    1.0000      1.0000    
-------------------------------------------------------------------------------
L=0  Nkbl=2  erefs: 0.17977+309 0.17977+309
L=1  Nkbl=2  erefs: 0.17977+309 0.17977+309
L=2  Nkbl=1  erefs: 0.17977+309
===============================================================================
</basis_specs>

<pseudopotential_header>
 Mo pb rel pcec
 ONCVPSP-3.2018-04-17Hamann's oncvpsp                        
 4s 2.00r r= 1.46/4p 6.00r r= 1.46/4d 5.00r r= 1.35/                    4s:4p:4d:5s:
</pseudopotential_header>
</preamble>
Mo                            # Symbol
Mo                            # Label
   42                         # Atomic number
     14.0000000000                             # Valence charge
     95.9500000000        # Mass 
     214.700291611        # Self energy 
   2   7                      # Lmax for basis, no. of nl orbitals 
   2   8 T                    # Lmax for projectors, no. of nl KB projectors, LJ projs?
# PAOs:__________________________
  0  4  1  0  2.000000   #orbital l, n, z, is_polarized, population
 500    0.5530964946463984E-02     2.759951508285528     # npts, delta, cutoff
     0.000000000000000        0.1428804261815681    
    0.5530964946463984E-02    0.1430243624304975    
    0.1106192989292797E-01    0.1434660599964780    
    0.1659289483939195E-01    0.1442019302194192    
    0.2212385978585594E-01    0.1452315272388879    
    0.2765482473231992E-01    0.1465542291319170    
    0.3318578967878390E-01    0.1481692373808541    
    0.3871675462524789E-01    0.1500755773365482    
    0.4424771957171187E-01    0.1522720989227207    
    0.4977868451817585E-01    0.1547574774970394    
    0.5530964946463984E-01    0.1575302148512643    
    0.6084061441110382E-01    0.1605886403448791    
    0.6637157935756781E-01    0.1639309121695777    
    0.7190254430403178E-01    0.1675550187427660    
    0.7743350925049577E-01    0.1714587802284918    
    0.8296447419695975E-01    0.1756398501842438    
    0.8849543914342374E-01    0.1800957173319734    
    0.9402640408988773E-01    0.1848237074516573    
    0.9955736903635171E-01    0.1898209853956483    
    0.1050883339828157        0.1950845572218729    
    0.1106192989292797        0.2006112724440245    
    0.1161502638757437        0.2063978263965593    
    0.1216812288222076        0.2124407627123855    
    0.1272121937686716        0.2187364759110324    
    0.1327431587151356        0.2252812140949530    
    0.1382741236615996        0.2320710817513310    
    0.1438050886080636        0.2391020426572096    
    0.1493360535545276        0.2463699228849661    
    0.1548670185009915        0.2538704139056270    
    0.1603979834474555        0.2615990757871473    
    0.1659289483939195        0.2695513404848381    
    0.1714599133403835        0.2777225152209467    
    0.1769908782868475        0.2861077859503159    
    0.1825218432333115        0.2947022209090375    
    0.1880528081797755        0.3035007742429988    
    0.1935837731262394        0.3124982897129298    
    0.1991147380727034        0.3216895044727795    
    0.2046457030191674        0.3310690529178209    
    0.2101766679656314        0.3406314705994516    
    0.2157076329120954        0.3503711982027844    
    0.2212385978585593        0.3602825855836642    
    0.2267695628050233        0.3703598958615908    
    0.2323005277514873        0.3805973095648426    
    0.2378314926979513        0.3909889288241653    
    0.2433624576444153        0.4015287816111573    
    0.2488934225908793        0.4122108260179336    
    0.2544243875373433        0.4230289545744154    
    0.2599553524838072        0.4339769985988986    
    0.2654863174302712        0.4450487325777037    
    0.2710172823767352        0.4562378785714333    
    0.2765482473231992        0.4675381106456791    
    0.2820792122696631        0.4789430593140246    
    0.2876101772161271        0.4904463160018946    
    0.2931411421625911        0.5020414375184182    
    0.2986721071090551        0.5137219505316634    
    0.3042030720555191        0.5254813560557596    
    0.3097340370019831        0.5373131339248228    
    0.3152650019484471        0.5492107472746266    
    0.3207959668949111        0.5611676470073965    
    0.3263269318413751        0.5731772762439862    
    0.3318578967878390        0.5852330747721126    
    0.3373888617343030        0.5973284834548303    
    0.3429198266807670        0.6094569486325666    
    0.3484507916272310        0.6216119264958132    
    0.3539817565736950        0.6337868874163357    
    0.3595127215201590        0.6459753202532880    
    0.3650436864666229        0.6581707366255588    
    0.3705746514130869        0.6703666751344375    
    0.3761056163595509        0.6825567055432156    
    0.3816365813060149        0.6947344329117953    
    0.3871675462524788        0.7068935016801449    
    0.3926985111989428        0.7190275996981497    
    0.3982294761454068        0.7311304621954344    
    0.4037604410918708        0.7431958756913358    
    0.4092914060383348        0.7552176818424439    
    0.4148223709847988        0.7671897812235724    
    0.4203533359312628        0.7791061370395354    
    0.4258843008777268        0.7909607787648446    
    0.4314152658241907        0.8027478057088859    
    0.4369462307706547        0.8144613905038153    
    0.4424771957171187        0.8260957825127223    
    0.4480081606635827        0.8376453111557393    
    0.4535391256100467        0.8491043891516882    
    0.4590700905565107        0.8604675156732122    
    0.4646010555029746        0.8717292794129224    
    0.4701320204494386        0.8828843615589654    
    0.4756629853959026        0.8939275386777710    
    0.4811939503423666        0.9048536855022314    
    0.4867249152888306        0.9156577776236372    
    0.4922558802352945        0.9263348940857986    
    0.4977868451817585        0.9368802198797979    
    0.5033178101282225        0.9472890483380183    
    0.5088487750746865        0.9575567834262840    
    0.5143797400211505        0.9676789419321399    
    0.5199107049676145        0.9776511555479926    
    0.5254416699140785        0.9874691728499555    
    0.5309726348605425        0.9971288611708237    
    0.5365035998070065         1.006626208366376    
    0.5420345647534704         1.015957324474523    
    0.5475655296999344         1.025118443265653    
    0.5530964946463984         1.034105923676984    
    0.5586274595928623         1.042916251146720    
    0.5641584245393263         1.051546038841392    
    0.5696893894857903         1.059992028772820    
    0.5752203544322543         1.068251092802129    
    0.5807513193787183         1.076320233518412    
    0.5862822843251823         1.084196585036145    
    0.5918132492716462         1.091877413682929    
    0.5973442142181102         1.099360118571239    
    0.6028751791645742         1.106642232031675    
    0.6084061441110382         1.113721419980691    
    0.6139371090575022         1.120595482190834    
    0.6194680740039662         1.127262352427125    
    0.6249990389504302         1.133720098443878    
    0.6305300038968942         1.139966921959560    
    0.6360609688433582         1.146001158507727    
    0.6415919337898222         1.151821277117255    
    0.6471228987362861         1.157425879949897    
    0.6526538636827501         1.162813701885155    
    0.6581848286292140         1.167983609910610    
    0.6637157935756780         1.172934602433555    
    0.6692467585221420         1.177665808603928    
    0.6747777234686060         1.182176487420680    
    0.6803086884150700         1.186466026755229    
    0.6858396533615340         1.190533942416755    
    0.6913706183079980         1.194379876972308    
    0.6969015832544619         1.198003598530498    
    0.7024325482009259         1.201404999549326    
    0.7079635131473899         1.204584095373507    
    0.7134944780938539         1.207541022834748    
    0.7190254430403179         1.210276038778106    
    0.7245564079867819         1.212789518363569    
    0.7300873729332459         1.215081953507629    
    0.7356183378797099         1.217153951096295    
    0.7411493028261739         1.219006231164322    
    0.7466802677726379         1.220639625103346    
    0.7522112327191018         1.222055073635897    
    0.7577421976655658         1.223253624910008    
    0.7632731626120297         1.224236432405567    
    0.7688041275584937         1.225004752840627    
    0.7743350925049577         1.225559944038646    
    0.7798660574514217         1.225903462690723    
    0.7853970223978857         1.226036862139414    
    0.7909279873443497         1.225961790055389    
    0.7964589522908136         1.225679986125004    
    0.8019899172372776         1.225193279644030    
    0.8075208821837416         1.224503587150889    
    0.8130518471302056         1.223612909906894    
    0.8185828120766696         1.222523331523741    
    0.8241137770231336         1.221237015316125    
    0.8296447419695976         1.219756201939086    
    0.8351757069160616         1.218083206639191    
    0.8407066718625256         1.216220416878914    
    0.8462376368089896         1.214170289540482    
    0.8517686017554535         1.211935348501489    
    0.8572995667019175         1.209518181843959    
    0.8628305316483814         1.206921439356951    
    0.8683614965948454         1.204147829785402    
    0.8738924615413094         1.201200118255751    
    0.8794234264877734         1.198081123577545    
    0.8849543914342374         1.194793715609279    
    0.8904853563807014         1.191340812604319    
    0.8960163213271654         1.187725378660441    
    0.9015472862736293         1.183950459708846    
    0.9070782512200933         1.180019077001787    
    0.9126092161665573         1.175934302646646    
    0.9181401811130213         1.171699257324990    
    0.9236711460594853         1.167317094229285    
    0.9292021110059493         1.162790996786346    
    0.9347330759524133         1.158124175659102    
    0.9402640408988773         1.153319866798188    
    0.9457950058453413         1.148381328156003    
    0.9513259707918053         1.143311838143744    
    0.9568569357382692         1.138114692033503    
    0.9623879006847331         1.132793200800094    
    0.9679188656311971         1.127350687327488    
    0.9734498305776611         1.121790485434541    
    0.9789807955241251         1.116115936199957    
    0.9845117604705891         1.110330386784530    
    0.9900427254170531         1.104437187323442    
    0.9955736903635171         1.098439689106404    
     1.001104655309981         1.092341242438074    
     1.006635620256445         1.086145193889950    
     1.012166585202909         1.079854885255680    
     1.017697550149373         1.073473650002117    
     1.023228515095837         1.067004812897205    
     1.028759480042301         1.060451686408708    
     1.034290444988765         1.053817570016297    
     1.039821409935229         1.047105747611036    
     1.045352374881693         1.040319485615981    
     1.050883339828157         1.033462031917155    
     1.056414304774621         1.026536612765003    
     1.061945269721085         1.019546432692024    
     1.067476234667549         1.012494671303202    
     1.073007199614013         1.005384482698218    
     1.078538164560477        0.9982189936082618    
     1.084069129506941        0.9910013013402053    
     1.089600094453405        0.9837344735009314    
     1.095131059399869        0.9764215451023598    
     1.100662024346333        0.9690655184605391    
     1.106192989292797        0.9616693612026578    
     1.111723954239261        0.9542360048538305    
     1.117254919185725        0.9467683444803425    
     1.122785884132189        0.9392692363040666    
     1.128316849078653        0.9317414976618771    
     1.133847814025117        0.9241879053959238    
     1.139378778971581        0.9166111946419234    
     1.144909743918045        0.9090140586392994    
     1.150440708864509        0.9013991468513664    
     1.155971673810973        0.8937690647741680    
     1.161502638757437        0.8861263729746943    
     1.167033603703901        0.8784735859132208    
     1.172564568650365        0.8708131718956802    
     1.178095533596829        0.8631475518251118    
     1.183626498543292        0.8554790987410370    
     1.189157463489757        0.8478101374598057    
     1.194688428436220        0.8401429436313578    
     1.200219393382685        0.8324797435500477    
     1.205750358329148        0.8248227136335043    
     1.211281323275613        0.8171739798898705    
     1.216812288222076        0.8095356177125178    
     1.222343253168540        0.8019096514968228    
     1.227874218115004        0.7942980543302870    
     1.233405183061468        0.7867027477599038    
     1.238936148007932        0.7791256016905754    
     1.244467112954396        0.7715684340908970    
     1.249998077900860        0.7640330108807574    
     1.255529042847324        0.7565210460672648    
     1.261060007793788        0.7490342013710919    
     1.266590972740252        0.7415740863712326    
     1.272121937686716        0.7341422587699344    
     1.277652902633180        0.7267402239378515    
     1.283183867579644        0.7193694353785500    
     1.288714832526108        0.7120312950301160    
     1.294245797472572        0.7047271527723509    
     1.299776762419036        0.6974583072024655    
     1.305307727365500        0.6902260059306925    
     1.310838692311964        0.6830314450884944    
     1.316369657258428        0.6758757703730948    
     1.321900622204892        0.6687600773403662    
     1.327431587151356        0.6616854109262571    
     1.332962552097820        0.6546527667057847    
     1.338493517044284        0.6476630912225593    
     1.344024481990748        0.6407172815049917    
     1.349555446937212        0.6338161865001866    
     1.355086411883676        0.6269606074969299    
     1.360617376830140        0.6201512975819067    
     1.366148341776604        0.6133889632231266    
     1.371679306723068        0.6066742648538204    
     1.377210271669532        0.6000078161719485    
     1.382741236615996        0.5933901858529993    
     1.388272201562460        0.5868218984371640    
     1.393803166508924        0.5803034335520721    
     1.399334131455388        0.5738352274171049    
     1.404865096401852        0.5674176739407952    
     1.410396061348316        0.5610511240143679    
     1.415927026294780        0.5547358868768325    
     1.421457991241244        0.5484722319468230    
     1.426988956187708        0.5422603886287082    
     1.432519921134172        0.5361005466317252    
     1.438050886080636        0.5299928569491517    
     1.443581851027100        0.5239374310633710    
     1.449112815973564        0.5179343415400528    
     1.454643780920028        0.5119836266108204    
     1.460174745866492        0.5060852935938056    
     1.465705710812956        0.5002393216582260    
     1.471236675759420        0.4944456672425360    
     1.476767640705884        0.4887042688586707    
     1.482298605652348        0.4830150502835728    
     1.487829570598812        0.4773779220998112    
     1.493360535545276        0.4717927817037525    
     1.498891500491740        0.4662595124784856    
     1.504422465438204        0.4607779836526532    
     1.509953430384668        0.4553480515985864    
     1.515484395331132        0.4499695605354728    
     1.521015360277596        0.4446423426345315    
     1.526546325224059        0.4393662190567392    
     1.532077290170524        0.4341410005566831    
     1.537608255116987        0.4289664874014873    
     1.543139220063451        0.4238424698067425    
     1.548670185009915        0.4187687288546117    
     1.554201149956379        0.4137450367759884    
     1.559732114902843        0.4087711568930822    
     1.565263079849307        0.4038468445309442    
     1.570794044795771        0.3989718475290223    
     1.576325009742235        0.3941459061757852    
     1.581855974688699        0.3893687535797269    
     1.587386939635163        0.3846401164471090    
     1.592917904581627        0.3799597153163404    
     1.598448869528091        0.3753272644246960    
     1.603979834474555        0.3707424724400145    
     1.609510799421019        0.3662050429378722    
     1.615041764367483        0.3617146743976159    
     1.620572729313947        0.3572710603176401    
     1.626103694260411        0.3528738899339730    
     1.631634659206875        0.3485228484906566    
     1.637165624153339        0.3442176170886259    
     1.642696589099803        0.3399578731065153    
     1.648227554046267        0.3357432907230538    
     1.653758518992731        0.3315735410446714    
     1.659289483939195        0.3274482919629136    
     1.664820448885659        0.3233672087250370    
     1.670351413832123        0.3193299542751268    
     1.675882378778587        0.3153361892610589    
     1.681413343725051        0.3113855720144276    
     1.686944308671515        0.3074777591058833    
     1.692475273617979        0.3036124055715509    
     1.698006238564443        0.2997891648338738    
     1.703537203510907        0.2960076888168192    
     1.709068168457371        0.2922676284114441    
     1.714599133403835        0.2885686336342067    
     1.720130098350299        0.2849103535040966    
     1.725661063296763        0.2812924362485232    
     1.731192028243227        0.2777145296722706    
     1.736722993189691        0.2741762812726105    
     1.742253958136155        0.2706773381062555    
     1.747784923082619        0.2672173470317239    
     1.753315888029083        0.2637959550012719    
     1.758846852975547        0.2604128091485510    
     1.764377817922011        0.2570675566627149    
     1.769908782868475        0.2537598450264944    
     1.775439747814939        0.2504893222536716    
     1.780970712761403        0.2472556369607670    
     1.786501677707867        0.2440584382550533    
     1.792032642654331        0.2408973759422521    
     1.797563607600795        0.2377721007279084    
     1.803094572547259        0.2346822642810192    
     1.808625537493723        0.2316275191391571    
     1.814156502440187        0.2286075188701067    
     1.819687467386651        0.2256219182500648    
     1.825218432333115        0.2226703733227908    
     1.830749397279579        0.2197525413270906    
     1.836280362226043        0.2168680808024353    
     1.841811327172507        0.2140166517522149    
     1.847342292118971        0.2111979156985201    
     1.852873257065434        0.2084115356382542    
     1.858404222011899        0.2056571760901410    
     1.863935186958362        0.2029345032447738    
     1.869466151904827        0.2002431850145496    
     1.874997116851290        0.1975828910205809    
     1.880528081797755        0.1949532925906081    
     1.886059046744218        0.1923540628890824    
     1.891590011690683        0.1897848769638272    
     1.897120976637146        0.1872454117570047    
     1.902651941583611        0.1847353460782386    
     1.908182906530074        0.1822543607000318    
     1.913713871476538        0.1798021384049688    
     1.919244836423002        0.1773783640067465    
     1.924775801369466        0.1749827243286587    
     1.930306766315930        0.1726149082518115    
     1.935837731262394        0.1702746067640148    
     1.941368696208858        0.1679615129796107    
     1.946899661155322        0.1656753221378363    
     1.952430626101786        0.1634157316124060    
     1.957961591048250        0.1611824409532263    
     1.963492555994714        0.1589751519024650    
     1.969023520941178        0.1567935684040782    
     1.974554485887642        0.1546373966044939    
     1.980085450834106        0.1525063448731852    
     1.985616415780570        0.1504001238155669    
     1.991147380727034        0.1483184462809707    
     1.996678345673498        0.1462610273711915    
     2.002209310619962        0.1442275844461506    
     2.007740275566426        0.1422178371268231    
     2.013271240512890        0.1402315072988389    
     2.018802205459354        0.1382683191190668    
     2.024333170405818        0.1363279990295905    
     2.029864135352282        0.1344102757467038    
     2.035395100298746        0.1325148802567511    
     2.040926065245210        0.1306415458157980    
     2.046457030191674        0.1287900079643704    
     2.051987995138138        0.1269600045297973    
     2.057518960084602        0.1251512756029743    
     2.063049925031066        0.1233635635332814    
     2.068580889977530        0.1215966129280895    
     2.074111854923994        0.1198501706759417    
     2.079642819870458        0.1181239859241563    
     2.085173784816922        0.1164178100570155    
     2.090704749763386        0.1147313966888342    
     2.096235714709850        0.1130645016689991    
     2.101766679656314        0.1114168831012461    
     2.107297644602778        0.1097883013033506    
     2.112828609549242        0.1081785187902439    
     2.118359574495706        0.1065873002650618    
     2.123890539442170        0.1050144126325922    
     2.129421504388634        0.1034596250033394    
     2.134952469335098        0.1019227086480971    
     2.140483434281562        0.1004034369836422    
     2.146014399228026        0.9890158556280025E-01
     2.151545364174490        0.9741693209431991E-01
     2.157076329120954        0.9594925642998102E-01
     2.162607294067417        0.9449834052109060E-01
     2.168138259013882        0.9306396840459598E-01
     2.173669223960346        0.9164592619294623E-01
     2.179200188906810        0.9024400209657947E-01
     2.184731153853273        0.8885798639868411E-01
     2.190262118799738        0.8748767141501294E-01
     2.195793083746202        0.8613285147941327E-01
     2.201324048692666        0.8479332293351038E-01
     2.206855013639129        0.8346888414883839E-01
     2.212385978585594        0.8215933549550350E-01
     2.217916943532058        0.8086447930393335E-01
     2.223447908478521        0.7958411984971675E-01
     2.228978873424985        0.7831806334225891E-01
     2.234509838371449        0.7706611794529959E-01
     2.240040803317914        0.7582809374491042E-01
     2.245571768264377        0.7460380271121225E-01
     2.251102733210841        0.7339305868250806E-01
     2.256633698157305        0.7219567735235734E-01
     2.262164663103770        0.7101147628710178E-01
     2.267695628050233        0.6984027489850089E-01
     2.273226592996697        0.6868189440325138E-01
     2.278757557943161        0.6753615780650044E-01
     2.284288522889625        0.6640288988711343E-01
     2.289819487836089        0.6528191721025549E-01
     2.295350452782553        0.6417306810960974E-01
     2.300881417729017        0.6307617264320547E-01
     2.306412382675481        0.6199106257603814E-01
     2.311943347621945        0.6091757136409345E-01
     2.317474312568409        0.5985553415902130E-01
     2.323005277514873        0.5880478780392764E-01
     2.328536242461337        0.5776517078578187E-01
     2.334067207407801        0.5673652321614247E-01
     2.339598172354265        0.5571868681477522E-01
     2.345129137300729        0.5471150490468118E-01
     2.350660102247193        0.5371482242054968E-01
     2.356191067193657        0.5272848586288634E-01
     2.361722032140121        0.5175234327422358E-01
     2.367252997086585        0.5078624422280419E-01
     2.372783962033049        0.4983003978994226E-01
     2.378314926979513        0.4888358258187180E-01
     2.383845891925977        0.4794672669734437E-01
     2.389376856872441        0.4701932769514893E-01
     2.394907821818905        0.4610124257780582E-01
     2.400438786765369        0.4519232977580103E-01
     2.405969751711833        0.4429244915017571E-01
     2.411500716658297        0.4340146198406578E-01
     2.417031681604761        0.4251923094129051E-01
     2.422562646551225        0.4164562004841416E-01
     2.428093611497689        0.4078049467885313E-01
     2.433624576444153        0.3992372154282070E-01
     2.439155541390617        0.3907516869505280E-01
     2.444686506337081        0.3823470549879761E-01
     2.450217471283545        0.3740220260037873E-01
     2.455748436230009        0.3657753191364207E-01
     2.461279401176473        0.3576056660482532E-01
     2.466810366122937        0.3495118109345763E-01
     2.472341331069401        0.3414925104214497E-01
     2.477872296015865        0.3335465332005552E-01
     2.483403260962329        0.3256726598620861E-01
     2.488934225908793        0.3178696827436622E-01
     2.494465190855257        0.3101364058104117E-01
     2.499996155801721        0.3024716447045182E-01
     2.505527120748185        0.2948742264629465E-01
     2.511058085694649        0.2873429892634718E-01
     2.516589050641113        0.2798767822766149E-01
     2.522120015587577        0.2724744655197704E-01
     2.527650980534041        0.2651349097890985E-01
     2.533181945480504        0.2578569966435996E-01
     2.538712910426968        0.2506396180791344E-01
     2.544243875373433        0.2434816763506552E-01
     2.549774840319897        0.2363820838295464E-01
     2.555305805266360        0.2293397628650339E-01
     2.560836770212824        0.2223536457555052E-01
     2.566367735159289        0.2154226746377541E-01
     2.571898700105752        0.2085458012032390E-01
     2.577429665052216        0.2017219865508884E-01
     2.582960629998680        0.1949502010498993E-01
     2.588491594945145        0.1882294242110559E-01
     2.594022559891608        0.1815586446655962E-01
     2.599553524838072        0.1749368599968669E-01
     2.605084489784536        0.1683630765095695E-01
     2.610615454731001        0.1618363090945341E-01
     2.616146419677464        0.1553555810971314E-01
     2.621677384623928        0.1489199241962436E-01
     2.627208349570392        0.1425283783704973E-01
     2.632739314516856        0.1361799917138905E-01
     2.638270279463320        0.1298738202440652E-01
     2.643801244409784        0.1236089277738876E-01
     2.649332209356248        0.1173843857845816E-01
     2.654863174302712        0.1111992733093686E-01
     2.660394139249176        0.1050526768785389E-01
     2.665925104195640        0.9894369034632779E-02
     2.671456069142104        0.9287141472382229E-02
     2.676987034088568        0.8683495805568370E-02
     2.682517999035032        0.8083343529826101E-02
     2.688048963981496        0.7486596820356175E-02
     2.693579928927960        0.6893168524487185E-02
     2.699110893874424        0.6302972146431730E-02
     2.704641858820888        0.5715921832285413E-02
     2.710172823767352        0.5131932358170129E-02
     2.715703788713816        0.4550919118482760E-02
     2.721234753660280        0.3972798114387593E-02
     2.726765718606744        0.3397485944411290E-02
     2.732296683553208        0.2824899791417911E-02
     2.737827648499672        0.2254957409071415E-02
     2.743358613446136        0.1687577110401673E-02
     2.748889578392600        0.1122677756475840E-02
     2.754420543339064        0.5601787451506487E-03
     2.759951508285528         0.000000000000000    
  0  5  1  0  1.000000   #orbital l, n, z, is_polarized, population
 500    0.1419042964105027E-01     7.081024390884087     # npts, delta, cutoff
     0.000000000000000        0.5801991002666579E-01
    0.1419042964105027E-01    0.5840343854873070E-01
    0.2838085928210055E-01    0.5955610369142469E-01