<preamble>

<basis_specs>
===============================================================================
S                    Z=  16    Mass=  32.060        Charge= 0.17977+309
Lmxo=2 Lmxkb= 2    BasisType=split      Semic=F
L=0  Nsemic=0  Cnfigmx=3
          i=1  nzeta=2  polorb=0  (3s)
            splnorm:   0.15000    
               vcte:    0.0000    
               rinn:    0.0000    
               qcoe:    0.0000    
               qyuk:    0.0000    
               qwid:   0.10000E-01
                rcs:    4.1140      3.0148    
            lambdas:    1.0000      1.0000    
L=1  Nsemic=0  Cnfigmx=3
          i=1  nzeta=2  polorb=1  (3p)  (to be polarized perturbatively)
            splnorm:   0.15000    
               vcte:    0.0000    
               rinn:    0.0000    
               qcoe:    0.0000    
               qyuk:    0.0000    
               qwid:   0.10000E-01
                rcs:    4.9970      3.7067    
            lambdas:    1.0000      1.0000    
L=2  Nsemic=0  Cnfigmx=3
          i=1  nzeta=0  polorb=0  (3d)  (perturbative polarization orbital) (from 3p)
-------------------------------------------------------------------------------
L=0  Nkbl=1  erefs: 0.17977+309
L=1  Nkbl=1  erefs: 0.17977+309
L=2  Nkbl=1  erefs: 0.17977+309
===============================================================================
</basis_specs>

<pseudopotential_header>
 S  pb rel pcec
 ONCVPSP-3.2018-04-17Hamann's oncvpsp                        
 3s 2.00r r= 1.45/3p 4.00r r= 1.45/3d 0.00r r= 1.62/                    3s:3p:
</pseudopotential_header>
</preamble>
S                             # Symbol
S                             # Label
   16                         # Atomic number
     6.00000000000                             # Valence charge
     32.0600000000        # Mass 
     36.7892383931        # Self energy 
   2   5                      # Lmax for basis, no. of nl orbitals 
   2   5 T                    # Lmax for projectors, no. of nl KB projectors, LJ projs?
# PAOs:__________________________
  0  3  1  0  2.000000   #orbital l, n, z, is_polarized, population
 500    0.8244540613714562E-02     4.114025766243566     # npts, delta, cutoff
     0.000000000000000        0.8660147718977312E-01
    0.8244540613714562E-02    0.8670561920030587E-01
    0.1648908122742912E-01    0.8702054341371966E-01
    0.2473362184114369E-01    0.8754509970328174E-01
    0.3297816245485825E-01    0.8827881151809314E-01
    0.4122270306857281E-01    0.8922101371000486E-01
    0.4946724368228737E-01    0.9037085405012382E-01
    0.5771178429600193E-01    0.9172729535548145E-01
    0.6595632490971649E-01    0.9328911807752387E-01
    0.7420086552343105E-01    0.9505492331741565E-01
    0.8244540613714561E-01    0.9702313624169943E-01
    0.9068994675086017E-01    0.9919200987105170E-01
    0.9893448736457475E-01    0.1015596292128949    
    0.1071790279782893        0.1041239157064443    
    0.1154235685920039        0.1068826319469993    
    0.1236681092057184        0.1098333866547154    
    0.1319126498194330        0.1129736398518977    
    0.1401571904331476        0.1163007082122133    
    0.1484017310468621        0.1198117705445994    
    0.1566462716605767        0.1235038733749476    
    0.1648908122742912        0.1273739365886806    
    0.1731353528880058        0.1314187590985691    
    0.1813798935017203        0.1356350245027242    
    0.1896244341154349        0.1400193066998629    
    0.1978689747291495        0.1445680754301956    
    0.2061135153428640        0.1492777017127669    
    0.2143580559565786        0.1541444631526195    
    0.2226025965702932        0.1591645490936527    
    0.2308471371840077        0.1643340655959208    
    0.2390916777977223        0.1696490402195567    
    0.2473362184114369        0.1751054266005959    
    0.2555807590251514        0.1806991088072299    
    0.2638252996388660        0.1864259054687536    
    0.2720698402525805        0.1922815736727668    
    0.2803143808662951        0.1982618126297369    
    0.2885589214800097        0.2043622671071871    
    0.2968034620937242        0.2105785306402336    
    0.3050480027074388        0.2169061485257608    
    0.3132925433211534        0.2233406206139454    
    0.3215370839348679        0.2298774039113767    
    0.3297816245485825        0.2365119150129363    
    0.3380261651622971        0.2432395323822012    
    0.3462707057760116        0.2500555985021474    
    0.3545152463897261        0.2569554219196442    
    0.3627597870034407        0.2639342792085325    
    0.3710043276171553        0.2709874168770806    
    0.3792488682308698        0.2781100532456691    
    0.3874934088445844        0.2852973803200455    
    0.3957379494582990        0.2925445656882526    
    0.4039824900720135        0.2998467544760893    
    0.4122270306857281        0.3071990713624742    
    0.4204715712994426        0.3145966226976950    
    0.4287161119131572        0.3220344987645793    
    0.4369606525268718        0.3295077761352667    
    0.4452051931405863        0.3370115202499460    
    0.4534497337543009        0.3445407881046076    
    0.4616942743680155        0.3520906312028919    
    0.4699388149817300        0.3596560986259790    
    0.4781833555954446        0.3672322404075526    
    0.4864278962091592        0.3748141110233152    
    0.4946724368228737        0.3823967731745792    
    0.5029169774365883        0.3899753017597795    
    0.5111615180503029        0.3975447880191916    
    0.5194060586640173        0.4051003439450558    
    0.5276505992777319        0.4126371068514721    
    0.5358951398914465        0.4201502440959430    
    0.5441396805051610        0.4276349579896260    
    0.5523842211188756        0.4350864908597138    
    0.5606287617325902        0.4425001302024265    
    0.5688733023463047        0.4498712139285164    
    0.5771178429600193        0.4571951356868020    
    0.5853623835737338        0.4644673502263714    
    0.5936069241874484        0.4716833787679227    
    0.6018514648011630        0.4788388143551473    
    0.6100960054148775        0.4859293271477028    
    0.6183405460285921        0.4929506696339779    
    0.6265850866423067        0.4998986817310834    
    0.6348296272560212        0.5067692957395710    
    0.6430741678697358        0.5135585411223329    
    0.6513187084834504        0.5202625490789974    
    0.6595632490971649        0.5268775568881389    
    0.6678077897108795        0.5333999119913907    
    0.6760523303245941        0.5398260757952997    
    0.6842968709383086        0.5461526271695397    
    0.6925414115520232        0.5523762656220531    
    0.7007859521657377        0.5584938141347554    
    0.7090304927794523        0.5645022216461824    
    0.7172750333931669        0.5703985651703821    
    0.7255195740068814        0.5761800515449296    
    0.7337641146205960        0.5818440188038596    
    0.7420086552343106        0.5873879371746734    
    0.7502531958480251        0.5928094097010637    
    0.7584977364617397        0.5981061724955092    
    0.7667422770754543        0.6032760946317145    
    0.7749868176891688        0.6083171776895239    
    0.7832313583028834        0.6132275549667419    
    0.7914758989165980        0.6180054903752311    
    0.7997204395303125        0.6226493770415020    
    0.8079649801440271        0.6271577356211269    
    0.8162095207577416        0.6315292123507789    
    0.8244540613714562        0.6357625768989967    
    0.8326986019851708        0.6398567200147963    
    0.8409431425988853        0.6438106510072299    
    0.8491876832125999        0.6476234950553029    
    0.8574322238263145        0.6512944903610154    
    0.8656767644400289        0.6548229853145473    
    0.8739213050537435        0.6582084355859612    
    0.8821658456674581        0.6614504011627415    
    0.8904103862811726        0.6645485432568421    
    0.8986549268948872        0.6675026214110792    
    0.9068994675086017        0.6703124906786219    
    0.9151440081223163        0.6729780987684520    
    0.9233885487360309        0.6754994831082247    
    0.9316330893497454        0.6778767683657361    
    0.9398776299634600        0.6801101640316461    
    0.9481221705771746        0.6821999618420893    
    0.9563667111908891        0.6841465335009642    
    0.9646112518046037        0.6859503288715408    
    0.9728557924183183        0.6876118739310885    
    0.9811003330320328        0.6891317687711205    
    0.9893448736457474        0.6905106863804967    
    0.9975894142594620        0.6917493711278676    
     1.005833954873177        0.6928486371394642    
     1.014078495486891        0.6938093676043220    
     1.022323036100606        0.6946325136490640    
     1.030567576714320        0.6953190931276100    
     1.038812117328035        0.6958701903462533    
     1.047056657941749        0.6962869550879489    
     1.055301198555464        0.6965706018573357    
     1.063545739169178        0.6967224097721332    
     1.071790279782893        0.6967437215296401    
     1.080034820396607        0.6966359431233634    
     1.088279361010322        0.6964005434451580    
     1.096523901624037        0.6960390532655618    
     1.104768442237751        0.6955530651259693    
     1.113012982851466        0.6949442322736366    
     1.121257523465180        0.6942142679514989    
     1.129502064078895        0.6933649446761926    
     1.137746604692609        0.6923980928194096    
     1.145991145306324        0.6913155998470307    
     1.154235685920039        0.6901194086163749    
     1.162480226533753        0.6888115160704923    
     1.170724767147468        0.6873939714758341    
     1.178969307761182        0.6858688744654784    
     1.187213848374897        0.6842383731028402    
     1.195458388988611        0.6825046614276534    
     1.203702929602326        0.6806699771509440    
     1.211947470216041        0.6787365988581550    
     1.220192010829755        0.6767068432615990    
     1.228436551443470        0.6745830620999728    
     1.236681092057184        0.6723676390748792    
     1.244925632670899        0.6700629943288137    
     1.253170173284613        0.6676715590810698    
     1.261414713898328        0.6651957898002754    
     1.269659254512042        0.6626381630373182    
     1.277903795125757        0.6600011691488649    
     1.286148335739472        0.6572873089282493    
     1.294392876353186        0.6544990892122553    
     1.302637416966901        0.6516390196678199    
     1.310881957580615        0.6487096082281191    
     1.319126498194330        0.6457133581387565    
     1.327371038808044        0.6426527633274758    
     1.335615579421759        0.6395303058167183    
     1.343860120035474        0.6363484511274207    
     1.352104660649188        0.6331096461597385    
     1.360349201262903        0.6298163147396787    
     1.368593741876617        0.6264708560425827    
     1.376838282490332        0.6230756404025272    
     1.385082823104046        0.6196330082849452    
     1.393327363717761        0.6161452665847534    
     1.401571904331475        0.6126146880747820    
     1.409816444945190        0.6090435083600191    
     1.418060985558905        0.6054339254623268    
     1.426305526172619        0.6017880979714323    
     1.434550066786334        0.5981081448155808    
     1.442794607400048        0.5943961451720553    
     1.451039148013763        0.5906541378347356    
     1.459283688627477        0.5868841201205924    
     1.467528229241192        0.5830880402579602    
     1.475772769854907        0.5792677939931732    
     1.484017310468621        0.5754252203269224    
     1.492261851082336        0.5715621012887497    
     1.500506391696050        0.5676801627429912    
     1.508750932309765        0.5637810776299973    
     1.516995472923479        0.5598664670665676    
     1.525240013537194        0.5559379012305169    
     1.533484554150909        0.5519969008636837    
     1.541729094764623        0.5480449376826577    
     1.549973635378338        0.5440834367376397    
     1.558218175992052        0.5401137764819588    
     1.566462716605767        0.5361372908441654    
     1.574707257219481        0.5321552697638195    
     1.582951797833196        0.5281689603327937    
     1.591196338446910        0.5241795683627168    
     1.599440879060625        0.5201882585498261    
     1.607685419674340        0.5161961565697073    
     1.615929960288054        0.5122043491493450    
     1.624174500901769        0.5082138855842275    
     1.632419041515483        0.5042257787214086    
     1.640663582129198        0.5002410053770431    
     1.648908122742912        0.4962605081200993    
     1.657152663356627        0.4922851953174443    
     1.665397203970342        0.4883159425767605    
     1.673641744584056        0.4843535935393625    
     1.681886285197771        0.4803989603415178    
     1.690130825811485        0.4764528251138453    
     1.698375366425200        0.4725159401590373    
     1.706619907038914        0.4685890290816119    
     1.714864447652629        0.4646727876304946    
     1.723108988266343        0.4607678840924196    
     1.731353528880058        0.4568749604953674    
     1.739598069493772        0.4529946330208757    
     1.747842610107487        0.4491274927566078    
     1.756087150721202        0.4452741065769976    
     1.764331691334916        0.4414350175781635    
     1.772576231948631        0.4376107458895603    
     1.780820772562345        0.4338017893157692    
     1.789065313176060        0.4300086239015676    
     1.797309853789774        0.4262317045904196    
     1.805554394403489        0.4224714658576031    
     1.813798935017203        0.4187283222591345    
     1.822043475630918        0.4150026689627400    
     1.830288016244633        0.4112948824642505    
     1.838532556858347        0.4076053209707836    
     1.846777097472062        0.4039343249506847    
     1.855021638085776        0.4002822178696275    
     1.863266178699491        0.3966493063687626    
     1.871510719313205        0.3930358809464892    
     1.879755259926920        0.3894422166114253    
     1.887999800540635        0.3858685729019438    
     1.896244341154349        0.3823151947295044    
     1.904488881768064        0.3787823128766639    
     1.912733422381778        0.3752701439375441    
     1.920977962995493        0.3717788912864934    
     1.929222503609207        0.3683087454038005    
     1.937467044222922        0.3648598837982737    
     1.945711584836637        0.3614324720457839    
     1.953956125450351        0.3580266639672935    
     1.962200666064066        0.3546426015546620    
     1.970445206677780        0.3512804160359757    
     1.978689747291495        0.3479402279530393    
     1.986934287905209        0.3446221470740394    
     1.995178828518924        0.3413262734643465    
     2.003423369132638        0.3380526975157200    
     2.011667909746353        0.3348014998118032    
     2.019912450360068        0.3315727521918205    
     2.028156990973782        0.3283665177883582    
     2.036401531587497        0.3251828508052345    
     2.044646072201211        0.3220217975620249    
     2.052890612814926        0.3188833965939754    
     2.061135153428641        0.3157676783164305    
     2.069379694042355        0.3126746660225297    
     2.077624234656069        0.3096043760903271    
     2.085868775269784        0.3065568175450920    
     2.094113315883499        0.3035319929503911    
     2.102357856497213        0.3005298987552465    
     2.110602397110928        0.2975505248145054    
     2.118846937724642        0.2945938550798828    
     2.127091478338357        0.2916598681022988    
     2.135336018952072        0.2887485366123047    
     2.143580559565786        0.2858598279052820    
     2.151825100179501        0.2829937044922536    
     2.160069640793215        0.2801501238450358    
     2.168314181406930        0.2773290384161419    
     2.176558722020644        0.2745303963885943    
     2.184803262634359        0.2717541416482707    
     2.193047803248073        0.2690002134983142    
     2.201292343861788        0.2662685473804480    
     2.209536884475503        0.2635590750717215    
     2.217781425089217        0.2608717243105689    
     2.226025965702932        0.2582064192660267    
     2.234270506316646        0.2555630809389124    
     2.242515046930361        0.2529416269349140    
     2.250759587544075        0.2503419715183581    
     2.259004128157790        0.2477640261659915    
     2.267248668771504        0.2452076995746293    
     2.275493209385219        0.2426728974041889    
     2.283737749998934        0.2401595227911407    
     2.291982290612648        0.2376674765582283    
     2.300226831226363        0.2351966569784651    
     2.308471371840077        0.2327469599506454    
     2.316715912453792        0.2303182793908143    
     2.324960453067507        0.2279105072054406    
     2.333204993681221        0.2255235331137465    
     2.341449534294935        0.2231572450717509    
     2.349694074908650        0.2208115294240512    
     2.357938615522365        0.2184862707238479    
     2.366183156136079        0.2161813518575773    
     2.374427696749794        0.2138966543637322    
     2.382672237363508        0.2116320584423466    
     2.390916777977223        0.2093874427837600    
     2.399161318590938        0.2071626848830475    
     2.407405859204652        0.2049576611954813    
     2.415650399818367        0.2027722470421155    
     2.423894940432081        0.2006063166002174    
     2.432139481045795        0.1984597431963809    
     2.440384021659510        0.1963323993669996    
     2.448628562273225        0.1942241567137261    
     2.456873102886939        0.1921348860532286    
     2.465117643500654        0.1900644576107593    
     2.473362184114368        0.1880127410232216    
     2.481606724728083        0.1859796052170731    
     2.489851265341798        0.1839649186286868    
     2.498095805955512        0.1819685493161543    
     2.506340346569227        0.1799903649183516    
     2.514584887182941        0.1780302325981910    
     2.522829427796656        0.1760880192576823    
     2.531073968410370        0.1741635916021936    
     2.539318509024085        0.1722568160712781    
     2.547563049637799        0.1703675588466578    
     2.555807590251514        0.1684956860304839    
     2.564052130865229        0.1666410636845275    
     2.572296671478943        0.1648035577496759    
     2.580541212092658        0.1629830340963456    
     2.588785752706372        0.1611793586641930    
     2.597030293320087        0.1593923974875773    
     2.605274833933802        0.1576220166161499    
     2.613519374547516        0.1558680821838004    
     2.621763915161230        0.1541304605184716    
     2.630008455774945        0.1524090181602338    
     2.638252996388660        0.1507036217895748    
     2.646497537002374        0.1490141382969975    
     2.654742077616089        0.1473404348724533    
     2.662986618229803        0.1456823790201951    
     2.671231158843518        0.1440398384974560    
     2.679475699457233        0.1424126813732423    
     2.687720240070947        0.1408007761049066    
     2.695964780684662        0.1392039915520903    
     2.704209321298376        0.1376221969275110    
     2.712453861912091        0.1360552618379399    
     2.720698402525805        0.1345030563529504    
     2.728942943139520        0.1329654510187667    
     2.737187483753234        0.1314423168229368    
     2.745432024366949        0.1299335252140784    
     2.753676564980664        0.1284389481651958    
     2.761921105594378        0.1269584581873646    
     2.770165646208093        0.1254919283094483    
     2.778410186821807        0.1240392320773425    
     2.786654727435522        0.1226002436112007    
     2.794899268049237        0.1211748376191402    
     2.803143808662951        0.1197628893904871    
     2.811388349276665        0.1183642747810123    
     2.819632889890380        0.1169788702596812    
     2.827877430504095        0.1156065529236957    
     2.836121971117809        0.1142472005004054    
     2.844366511731524        0.1129006913296853    
     2.852611052345238        0.1115669043939011    
     2.860855592958953        0.1102457193358205    
     2.869100133572668        0.1089370164635656    
     2.877344674186382        0.1076406767398527    
     2.885589214800097        0.1063565817925058    
     2.893833755413811        0.1050846139345787    
     2.902078296027526        0.1038246561693150    
     2.910322836641240        0.1025765921881216    
     2.918567377254955        0.1013403063679840    
     2.926811917868669        0.1001156837887377    
     2.935056458482384        0.9890261023840027E-01
     2.943300999096099        0.9770097221513735E-01
     2.951545539709813        0.9651065692301851E-01
     2.959790080323528        0.9533155228038179E-01
     2.968034620937242        0.9416354692648564E-01
     2.976279161550957        0.9300653022351262E-01
     2.984523702164671        0.9186039225586200E-01
     2.992768242778386        0.9072502383065187E-01
     3.001012783392100        0.8960031648371532E-01
     3.009257324005815        0.8848616248116123E-01
     3.017501864619530        0.8738245482001038E-01
     3.025746405233244        0.8628908722728323E-01
     3.033990945846959        0.8520595416219565E-01
     3.042235486460673        0.8413295081765985E-01
     3.050480027074388        0.8306997312039825E-01
     3.058724567688103        0.8201691773062486E-01
     3.066969108301817        0.8097368204171319E-01
     3.075213648915531        0.7994016418063547E-01
     3.083458189529246        0.7891626300750423E-01
     3.091702730142960        0.7790187811482981E-01
     3.099947270756675        0.7689690982666463E-01
     3.108191811370390        0.7590125919773470E-01
     3.116436351984104        0.7491482801232426E-01
     3.124680892597819        0.7393751878294705E-01
     3.132925433211533        0.7296923474888235E-01
     3.141169973825248        0.7200987987458365E-01
     3.149414514438963        0.7105935884795372E-01
     3.157659055052677        0.7011757707849599E-01
     3.165903595666392        0.6918444069535182E-01
     3.174148136280106        0.6825985654508354E-01
     3.182392676893821        0.6734373218902662E-01
     3.190637217507535        0.6643597590125591E-01
     3.198881758121250        0.6553649666628426E-01
     3.207126298734964        0.6464520417656147E-01
     3.215370839348679        0.6376200882927968E-01
     3.223615379962394        0.6288682172275169E-01
     3.231859920576108        0.6201955465460834E-01
     3.240104461189823        0.6116012011911959E-01
     3.248349001803537        0.6030843130424963E-01
     3.256593542417252        0.5946440208722965E-01
     3.264838083030966        0.5862794703019755E-01
     3.273082623644681        0.5779898137891824E-01
     3.281327164258395        0.5697742105971981E-01
     3.289571704872110        0.5616318267612505E-01
     3.297816245485825        0.5535618350317124E-01
     3.306060786099539        0.5455634148257679E-01
     3.314305326713254        0.5376357522220981E-01
     3.322549867326968        0.5297780399290093E-01
     3.330794407940683        0.5219894772488247E-01
     3.339038948554398        0.5142692700064821E-01
     3.347283489168112        0.5066166304885918E-01
     3.355528029781826        0.4990307774515048E-01
     3.363772570395541        0.4915109360858474E-01
     3.372017111009256        0.4840563379762784E-01
     3.380261651622970        0.4766662210307140E-01
     3.388506192236685        0.4693398294102041E-01
     3.396750732850399        0.4620764135384242E-01
     3.404995273464114        0.4548752300688008E-01
     3.413239814077829        0.4477355418451460E-01
     3.421484354691543        0.4406566178291986E-01
     3.429728895305258        0.4336377329998324E-01
     3.437973435918972        0.4266781683844888E-01
     3.446217976532687        0.4197772110354581E-01
     3.454462517146401        0.4129341539903474E-01
     3.462707057760116        0.4061482962038463E-01
     3.470951598373830        0.3994189423863416E-01
     3.479196138987545        0.3927454030528766E-01
     3.487440679601260        0.3861269945240751E-01
     3.495685220214974        0.3795630388817287E-01
     3.503929760828689        0.3730528639162919E-01
     3.512174301442403        0.3665958029828001E-01
     3.520418842056118        0.3601911949862720E-01
     3.528663382669833        0.3538383844071138E-01
     3.536907923283547        0.3475367212587177E-01
     3.545152463897261        0.3412855610424181E-01
     3.553397004510976        0.3350842646283993E-01
     3.561641545124691        0.3289321981569102E-01
     3.569886085738405        0.3228287331059884E-01
     3.578130626352120        0.3167732462584089E-01
     3.586375166965834        0.3107651196569738E-01
     3.594619707579549        0.3048037405325217E-01
     3.602864248193264        0.2988885011379997E-01
     3.611108788806978        0.2930187987977477E-01
     3.619353329420693        0.2871940359109366E-01
     3.627597870034407        0.2814136199064931E-01
     3.635842410648122        0.2756769631950173E-01
     3.644086951261836        0.2699834830262461E-01
     3.652331491875551        0.2643326014208182E-01
     3.660576032489265        0.2587237452372995E-01
     3.668820573102980        0.2531563461335557E-01
     3.677065113716695        0.2476298405211739E-01
     3.685309654330409        0.2421436694936340E-01
     3.693554194944124        0.2366972786564624E-01
     3.701798735557838        0.2312901181783754E-01
     3.710043276171553        0.2259216427979694E-01
     3.718287816785267        0.2205913117785497E-01
     3.726532357398982        0.2152985888617503E-01
     3.734776898012696        0.2100429421489977E-01
     3.743021438626411        0.2048238439948418E-01
     3.751265979240126        0.1996407710830056E-01
     3.759510519853840        0.1944932043945203E-01
     3.767755060467555        0.1893806291625559E-01
     3.775999601081269        0.1843025348202410E-01
     3.784244141694984        0.1792584148492511E-01
     3.792488682308699        0.1742477667602951E-01
     3.800733222922413        0.1692700921353821E-01
     3.808977763536127        0.1643248965848722E-01
     3.817222304149842        0.1594116897025480E-01
     3.825466844763556        0.1545299850014782E-01
     3.833711385377271        0.1496792997651791E-01
     3.841955925990986        0.1448591550791781E-01
     3.850200466604700        0.1400690758372081E-01
     3.858445007218415        0.1353085906969138E-01
     3.866689547832129        0.1305772320352313E-01
     3.874934088445844        0.1258745358744741E-01
     3.883178629059559        0.1212000417560825E-01
     3.891423169673273        0.1165532927860443E-01
     3.899667710286988        0.1119338356186996E-01
     3.907912250900702        0.1073412204131721E-01
     3.916156791514417        0.1027750007893862E-01
     3.924401332128131        0.9823473375154620E-02
     3.932645872741846        0.9371997958745330E-02
     3.940890413355560        0.8923030190559598E-02
     3.949134953969275        0.8476526760908010E-02
     3.957379494582990        0.8032444685266584E-02
     3.965624035196704        0.7590741299965002E-02
     3.973868575810419        0.7151374255195472E-02
     3.982113116424133        0.6714301506663501E-02
     3.990357657037848        0.6279481317841010E-02
     3.998602197651562        0.5846872256924918E-02
     4.006846738265277        0.5416433192640637E-02
     4.015091278878992        0.4988123290019271E-02
     4.023335819492706        0.4561902004564824E-02
     4.031580360106421        0.4137729075231297E-02
     4.039824900720135        0.3715564524797034E-02
     4.048069441333849        0.3295368656748177E-02
     4.056313981947564        0.2877102051157384E-02
     4.064558522561279        0.2460725560559542E-02
     4.072803063174994        0.2046200305305806E-02
     4.081047603788708        0.1633487667998298E-02
     4.089292144402423        0.1222549291888062E-02
     4.097536685016137        0.8133470776212723E-03
     4.105781225629852        0.4058431792169544E-03
     4.114025766243566         0.000000000000000    
  0  3  2  0  0.000000   #orbital l, n, z, is_polarized, population
 500    0.6041591474233694E-02     3.014754145642613     # npts, delta, cutoff
     0.000000000000000       -0.4013832956295245    
    0.6041591474233694E-02   -0.4012717010716554    
    0.1208318294846739E-01   -0.4009318367273325    
    0.1812477442270108E-01   -0.4003655760696019    
    0.2416636589693478E-01   -0.3995731922530175    
    0.3020795737116847E-01   -0.3985550663161302    
    0.3624954884540216E-01   -0.3973116871315029    
    0.4229114031963586E-01   -0.3958436508044413    
    0.4833273179386955E-01   -0.3941516598782440    
    0.5437432326810324E-01   -0.3922365223888721    
    0.6041591474233694E-01   -0.3900991507809644    
    0.6645750621657064E-01   -0.3877405606919563    
    0.7249909769080433E-01   -0.3851618696101033    
    0.7854068916503802E-01   -0.3823642954123345    
    0.8458228063927171E-01   -0.3793491547881068    
    0.9062387211350541E-01   -0.3761178615557843    
    0.9666546358773910E-01   -0.3726719248784863    
    0.1027070550619728       -0.3690129473866123    
    0.1087486465362065       -0.3651426232145804    
    0.1147902380104402       -0.3610627359595684    
    0.1208318294846739       -0.3567751565701761    