<?xml version="1.0" encoding="UTF-8" ?>
<psml version="1.1" energy_unit="hartree" length_unit="bohr"
 uuid="2c15add0-23d3-11e8-41d2-f398aa9b15fa"
 xmlns="http://esl.cecam.org/PSML/ns/1.1">
<provenance creator="ONCVPSP-3.3.0+psml-3.3.0-73 (scalar-relativistic)"
 date="2018-03-09">
<annotation action="semilocal-pseudopotential-generation"
 action-cont="projectors-generation" />
<input-file name="oncvpsp-input">
<![CDATA[# atsym z nc nv iexc psfile
Ag 47 6 4 -001012 upf
# n l f
1 0 2.0
2 0 2.0
2 1 6.0
3 0 2.0
3 1 6.0
3 2 10.0
4 0 2.0
4 1 6.0
4 2 10.0
5 0 1.0
# lmax
2
# l rc ep ncon nbas qcut
0 1.4 0.0 4 8 9.2
1 1.45 0.0 4 8 9.2
2 1.6 0.0 4 8 9.2
# lloc lpopt rc5 dvloc0
4 5 1.4 0.0
# l nproj debl
0 2 1.0
1 2 1.0
2 2 1.0
# icmod fcfact rcfact
3 7.0 1.24
# epsh1 epsh2 depsh
-12.0 12.0 0.02
# rlmax drl
6.0 0.01
 0
]]>
</input-file>
</provenance>
<pseudo-atom-spec atomic-label="Ag" atomic-number="47" z-pseudo="19"
 flavor="Hamann&apos;s oncvpsp" relativity="scalar" spin-dft="no"
 core-corrections="yes">
<annotation pseudo-energy="-147.455653470" />
<exchange-correlation>
<annotation oncvpsp-xc-code="-1012" oncvpsp-xc-type="libxc-interface" />
<libxc-info number-of-functionals="2">
<functional name="Slater exchange (LDA)" type="exchange" id="1" />
<functional name="Perdew &amp; Wang (LDA)" type="correlation" id="12" />
</libxc-info>
</exchange-correlation>
<valence-configuration total-valence-charge="19">
<shell n="4" l="s" occupation="2" />
<shell n="4" l="p" occupation="6" />
<shell n="4" l="d" occupation="10" />
<shell n="5" l="s" occupation="1" />
</valence-configuration>
</pseudo-atom-spec>
<grid npts="458">
<annotation type="sampled from oncvpsp log grid"
 recipe="r(i:1..N) = r1*exp(a*(i-1)) + r=0; resampled"
 recipe-cont="r1: scale; a: step" scale="0.106382978723E-04"
 step="0.119285708653E-01" delta="0.500000000000E-02" rmax="44.4188311520" />
<grid-data>
  0.000000000000E+00  5.012063889261E-03  1.013133873758E-02  1.519862365413E-02
  2.023655404941E-02  2.538436470997E-02  3.072235470001E-02  3.587576424974E-02
  4.090597974922E-02  4.608843105027E-02  5.131171573174E-02  5.644956981122E-02
  6.210187841956E-02  6.751003360562E-02  7.251893194389E-02  7.789946485591E-02
  8.367920572152E-02  8.882191079441E-02  9.428067306739E-02  1.000749165892E-01
  1.062252591596E-01  1.114165866549E-01  1.168616191670E-01  1.225727554967E-01
  1.285630003858E-01  1.348459941300E-01  1.414360436389E-01  1.465890859822E-01
  1.519298728687E-01  1.574652445318E-01  1.632022904206E-01  1.691483582787E-01
  1.753110635559E-01  1.816982991609E-01  1.883182455706E-01  1.951793813071E-01
  2.022904937969E-01  2.096606906249E-01  2.147227383393E-01  2.199070041338E-01
  2.252164388416E-01  2.306540645410E-01  2.362229762752E-01  2.419263438144E-01
  2.477674134595E-01  2.537495098901E-01  2.598760380568E-01  2.661504851197E-01
  2.725764224324E-01  2.791575075756E-01  2.858974864385E-01  2.928001953511E-01
  2.998695632677E-01  3.071096140032E-01  3.145244685237E-01  3.221183472917E-01
  3.298955726687E-01  3.378605713752E-01  3.460178770105E-01  3.543721326331E-01
  3.629280934034E-01  3.716906292905E-01  3.806647278441E-01  3.898554970332E-01
  3.992681681535E-01  4.089080988054E-01  4.187807759430E-01  4.238061452543E-01
  4.288918189973E-01  4.340385208253E-01  4.392469830752E-01  4.445179468721E-01
  4.498521622346E-01  4.552503881814E-01  4.607133928396E-01  4.662419535537E-01
  4.718368569963E-01  4.774988992803E-01  4.832288860716E-01  4.890276327045E-01
  4.948959642969E-01  5.008347158685E-01  5.068447324589E-01  5.129268692484E-01
  5.190819916794E-01  5.253109755796E-01  5.316147072865E-01  5.379940837739E-01
  5.444500127792E-01  5.509834129326E-01  5.575952138878E-01  5.642863564544E-01
  5.710577927319E-01  5.779104862447E-01  5.848454120796E-01  5.918635570246E-01
  5.989659197089E-01  6.061535107454E-01  6.134273528743E-01  6.207884811088E-01
  6.282379428821E-01  6.357767981967E-01  6.434061197750E-01  6.511269932123E-01
  6.589405171309E-01  6.668478033365E-01  6.748499769765E-01  6.829481767002E-01
  6.911435548206E-01  6.994372774785E-01  7.078305248082E-01  7.163244911059E-01
  7.249203849992E-01  7.336194296192E-01  7.424228627746E-01  7.513319371279E-01
  7.603479203734E-01  7.694720954179E-01  7.787057605629E-01  7.880502296897E-01
  7.975068324460E-01  8.070769144353E-01  8.167618374085E-01  8.265629794574E-01
  8.364817352109E-01  8.465195160335E-01  8.566777502259E-01  8.669578832286E-01
  8.773613778273E-01  8.878897143612E-01  8.985443909336E-01  9.093269236248E-01
  9.202388467083E-01  9.312817128688E-01  9.424570934232E-01  9.537665785443E-01
  9.652117774868E-01  9.767943188166E-01  9.885158506424E-01  1.000378040850E+00
  1.012382577340E+00  1.024531168268E+00  1.036825542288E+00  1.049267448795E+00
  1.061858658181E+00  1.074600962079E+00  1.087496173624E+00  1.100546127707E+00
  1.113752681240E+00  1.127117713415E+00  1.140643125976E+00  1.154330843487E+00
  1.168182813609E+00  1.182201007372E+00  1.196387419461E+00  1.210744068494E+00
  1.225272997316E+00  1.239976273284E+00  1.254855988564E+00  1.269914260426E+00
  1.285153231551E+00  1.300575070330E+00  1.316181971174E+00  1.331976154828E+00
  1.347959868686E+00  1.364135387110E+00  1.380505011756E+00  1.397071071897E+00
  1.413835924759E+00  1.430801955857E+00  1.447971579327E+00  1.465347238279E+00
  1.482931405138E+00  1.500726582000E+00  1.518735300984E+00  1.536960124596E+00
  1.555403646091E+00  1.574068489844E+00  1.592957311722E+00  1.612072799463E+00
  1.631417673056E+00  1.650994685133E+00  1.670806621354E+00  1.690856300811E+00
  1.711146576420E+00  1.731680335337E+00  1.752460499362E+00  1.773490025354E+00
  1.794771905658E+00  1.816309168526E+00  1.838104878548E+00  1.860162137091E+00
  1.882484082736E+00  1.905073891729E+00  1.927934778430E+00  1.951069995771E+00
  1.974482835720E+00  1.998176629749E+00  2.022154749306E+00  2.046420606297E+00
  2.070977653573E+00  2.095829385416E+00  2.120979338041E+00  2.146431090097E+00
  2.172188263178E+00  2.198254522336E+00  2.224633576605E+00  2.251329179524E+00
  2.278345129678E+00  2.305685271234E+00  2.333353494489E+00  2.361353736423E+00
  2.389689981260E+00  2.418366261035E+00  2.447386656167E+00  2.476755296041E+00
  2.506476359594E+00  2.536554075909E+00  2.566992724820E+00  2.597796637518E+00
  2.628970197168E+00  2.660517839534E+00  2.692444053609E+00  2.724753382252E+00
  2.757450422839E+00  2.790539827913E+00  2.824026305848E+00  2.857914621518E+00
  2.892209596976E+00  2.926916112140E+00  2.962039105486E+00  2.997583574751E+00
  3.033554577648E+00  3.069957232580E+00  3.106796719371E+00  3.144078280004E+00
  3.181807219364E+00  3.219988905996E+00  3.258628772868E+00  3.297732318142E+00
  3.337305105960E+00  3.377352767232E+00  3.417881000438E+00  3.458895572444E+00
  3.500402319313E+00  3.542407147145E+00  3.584916032911E+00  3.627935025305E+00
  3.671470245609E+00  3.715527888556E+00  3.760114223219E+00  3.805235593898E+00
  3.850898421025E+00  3.897109202077E+00  3.943874512502E+00  3.991201006652E+00
  4.039095418732E+00  4.087564563756E+00  4.136615338521E+00  4.186254722584E+00
  4.236489779255E+00  4.287327656606E+00  4.338775588485E+00  4.390840895547E+00
  4.443530986293E+00  4.496853358129E+00  4.550815598426E+00  4.605425385608E+00
  4.660690490235E+00  4.716618776118E+00  4.773218201431E+00  4.830496819848E+00
  4.888462781686E+00  4.947124335067E+00  5.006489827088E+00  5.066567705013E+00
  5.127366517473E+00  5.188894915682E+00  5.251161654671E+00  5.314175594527E+00
  5.377945701661E+00  5.442481050081E+00  5.507790822682E+00  5.573884312554E+00
  5.640770924305E+00  5.708460175396E+00  5.776961697501E+00  5.846285237871E+00
  5.916440660726E+00  5.987437948654E+00  6.059287204038E+00  6.131998650487E+00
  6.205582634292E+00  6.280049625904E+00  6.355410221415E+00  6.431675144072E+00
  6.508855245801E+00  6.586961508750E+00  6.666005046855E+00  6.745997107417E+00
  6.826949072706E+00  6.908872461579E+00  6.991778931118E+00  7.075680278291E+00
  7.160588441631E+00  7.246515502930E+00  7.333473688966E+00  7.421475373233E+00
  7.510533077712E+00  7.600659474644E+00  7.691867388340E+00  7.784169797000E+00
  7.877579834564E+00  7.972110792579E+00  8.067776122090E+00  8.164589435555E+00
  8.262564508782E+00  8.361715282887E+00  8.462055866282E+00  8.563600536677E+00
  8.666363743117E+00  8.770360108035E+00  8.875604429331E+00  8.982111682483E+00
  9.089897022673E+00  9.198975786945E+00  9.309363496388E+00  9.421075858345E+00
  9.534128768645E+00  9.648538313869E+00  9.764320773635E+00  9.881492622919E+00
  1.000007053439E+01  1.012007138081E+01  1.024151223738E+01  1.036441038422E+01
  1.048878330884E+01  1.061464870854E+01  1.074202449304E+01  1.087092878696E+01
  1.100137993240E+01  1.113339649159E+01  1.126699724949E+01  1.140220121649E+01
  1.153902763108E+01  1.167749596266E+01  1.181762591421E+01  1.195943742518E+01
  1.210295067428E+01  1.224818608237E+01  1.239516431536E+01  1.254390628715E+01
  1.269443316259E+01  1.284676636054E+01  1.300092755687E+01  1.315693868755E+01
  1.331482195180E+01  1.347459981522E+01  1.363629501301E+01  1.379993055316E+01
  1.396552971980E+01  1.413311607644E+01  1.430271346936E+01  1.447434603099E+01
  1.464803818336E+01  1.482381464156E+01  1.500170041726E+01  1.518172082227E+01
  1.536390147213E+01  1.554826828980E+01  1.573484750928E+01  1.592366567939E+01
  1.611474966754E+01  1.630812666355E+01  1.650382418351E+01  1.670187007371E+01
  1.690229251460E+01  1.710512002477E+01  1.731038146507E+01  1.751810604265E+01
  1.772832331516E+01  1.794106319495E+01  1.815635595329E+01  1.837423222473E+01
  1.859472301142E+01  1.881785968756E+01  1.904367400381E+01  1.927219809186E+01
  1.950346446896E+01  1.973750604259E+01  1.997435611510E+01  2.021404838848E+01
  2.045661696914E+01  2.070209637277E+01  2.095052152924E+01  2.120192778759E+01
  2.145635092104E+01  2.171382713210E+01  2.197439305768E+01  2.223808577437E+01
  2.250494280367E+01  2.277500211731E+01  2.304830214272E+01  2.332488176843E+01
  2.360478034965E+01  2.388803771385E+01  2.417469416641E+01  2.446479049641E+01
  2.475836798237E+01  2.505546839816E+01  2.535613401893E+01  2.566040762716E+01
  2.596833251869E+01  2.627995250891E+01  2.659531193902E+01  2.691445568229E+01
  2.723742915047E+01  2.756427830028E+01  2.789504963988E+01  2.822979023556E+01
  2.856854771839E+01  2.891137029101E+01  2.925830673450E+01  2.960940641532E+01
  2.996471929230E+01  3.032429592381E+01  3.068818747489E+01  3.105644572459E+01
  3.142912307329E+01  3.180627255017E+01  3.218794782077E+01  3.257420319462E+01
  3.296509363295E+01  3.336067475655E+01  3.376100285363E+01  3.416613488787E+01
  3.457612850652E+01  3.499104204860E+01  3.541093455319E+01  3.583586576782E+01
  3.626589615704E+01  3.670108691092E+01  3.714149995385E+01  3.758719795330E+01
  3.803824432874E+01  3.849470326068E+01  3.895663969981E+01  3.942411937621E+01
  3.989720880872E+01  4.037597531443E+01  4.086048701820E+01  4.135081286242E+01
  4.184702261677E+01  4.234918688817E+01  4.285737713083E+01  4.337166565640E+01
  4.389212564428E+01  4.441883115201E+01
</grid-data>
</grid>
<valence-charge total-charge="19" is-unscreening-charge="yes"
 rescaled-to-z-pseudo="no">
<radfunc>
<data npts="458">
  2.254631105304E+00  2.257177397418E+00  2.265035504954E+00  2.278046748823E+00
  2.296144704926E+00  2.319955513647E+00  2.350324957214E+00  2.385131997216E+00
  2.424308689476E+00  2.470048039871E+00  2.521672370922E+00  2.577866058610E+00
  2.645892020215E+00  2.717068809407E+00  2.788304861629E+00  2.870521209629E+00
  2.965410521802E+00  3.055565685266E+00  3.157158835185E+00  3.271638240146E+00
  3.400633286262E+00  3.515504253081E+00  3.641874256343E+00  3.780884940345E+00
  3.933787345457E+00  4.101950949605E+00  4.286872953657E+00  4.437539856615E+00
  4.599292653762E+00  4.772922697523E+00  4.959271570492E+00  5.159232735200E+00
  5.373752836626E+00  5.603832534055E+00  5.850526711688E+00  6.114943885666E+00
  6.398244588221E+00  6.701638467304E+00  6.915681664755E+00  7.139593216529E+00
  7.373760997379E+00  7.618578028634E+00  7.874440875006E+00  8.141747741027E+00
  8.420896230912E+00  8.712280732833E+00  9.016289385845E+00  9.333300585108E+00
  9.663678978675E+00  1.000777090716E+01  1.036589923615E+01  1.073835753041E+01
  1.112540351923E+01  1.152725180345E+01  1.194406575752E+01  1.237594858469E+01
  1.282293348971E+01  1.328497294311E+01  1.376192702302E+01  1.425355083627E+01
  1.475948103991E+01  1.527922150869E+01  1.581212822230E+01  1.635739348104E+01
  1.691402959811E+01  1.748085226287E+01  1.805646382142E+01  1.834706626276E+01
  1.863923677904E+01  1.893273340960E+01  1.922729789251E+01  1.952265523121E+01
  1.981851328928E+01  2.011456241816E+01  2.041047512272E+01  2.070590577006E+01
  2.100049034710E+01  2.129384627269E+01  2.158557227056E+01  2.187524830916E+01
  2.216243561521E+01  2.244667676752E+01  2.272749587800E+01  2.300439886688E+01
  2.327687383911E+01  2.354439156908E+01  2.380640610059E+01  2.406235546896E+01
  2.431166255195E+01  2.455373605590E+01  2.478797164308E+01  2.501375320583E+01
  2.523045429243E+01  2.543743968904E+01  2.563406716117E+01  2.581968935725E+01
  2.599365587584E+01  2.615531549673E+01  2.630401857515E+01  2.643911959637E+01
  2.655997988695E+01  2.666597047683E+01  2.675647510468E+01  2.683089335709E+01
  2.688864393012E+01  2.692916799943E+01  2.695193268325E+01  2.695643458000E+01
  2.694220336024E+01  2.690880539014E+01  2.685584736163E+01  2.678297990205E+01
  2.668990113407E+01  2.657636015474E+01  2.644216040055E+01  2.628716286428E+01
  2.611128912763E+01  2.591452417294E+01  2.569691893683E+01  2.545859256815E+01
  2.519973435306E+01  2.492060527086E+01  2.462153914543E+01  2.430294335910E+01
  2.396529909813E+01  2.360916110214E+01  2.323515689351E+01  2.284398546697E+01
  2.243641542461E+01  2.201328254680E+01  2.157548679572E+01  2.112398875427E+01
  2.065980551031E+01  2.018400600295E+01  1.969770585518E+01  1.920206172431E+01
  1.869826520923E+01  1.818753636063E+01  1.767111684717E+01  1.715026283710E+01
  1.662623766074E+01  1.610030432414E+01  1.557371794878E+01  1.504771821522E+01
  1.452352189069E+01  1.400231552200E+01  1.348524837419E+01  1.297342569433E+01
  1.246790237652E+01  1.196967710017E+01  1.147968700789E+01  1.099880298293E+01
  1.052782557792E+01  1.006748163847E+01  9.618421655272E+00  9.181217868506E+00
  8.756363137789E+00  8.344270580310E+00  7.945273969036E+00  7.559628872478E+00
  7.187514507436E+00  6.829036266613E+00  6.484228874212E+00  6.153060114631E+00
  5.835435072276E+00  5.531200814438E+00  5.240151443994E+00  4.962033444690E+00
  4.696551238627E+00  4.443373094187E+00  4.202137906917E+00  3.972462286565E+00
  3.753946157428E+00  3.546180633731E+00  3.348756932616E+00  3.161269590907E+00
  2.983319204429E+00  2.814514664921E+00  2.654474850730E+00  2.502829745169E+00
  2.359220570756E+00  2.223297900120E+00  2.094718955034E+00  1.973148505402E+00
  1.858259525208E+00  1.749733788059E+00  1.647262356793E+00  1.550545974901E+00
  1.459295367413E+00  1.373231458742E+00  1.292085514822E+00  1.215599216613E+00
  1.143524671812E+00  1.075624371301E+00  1.011671096555E+00  9.514477839098E-01
  8.947473512434E-01  8.413724922810E-01  7.911354433806E-01  7.438577273080E-01
  6.993698781616E-01  6.575111512679E-01  6.181292215353E-01  5.810798734330E-01
  5.462266854503E-01  5.134407115978E-01  4.826001622281E-01  4.535900861890E-01
  4.263020560693E-01  4.006338580649E-01  3.764891877743E-01  3.537773530287E-01
  3.324129846791E-01  3.123157560896E-01  2.934101119327E-01  2.756250067423E-01
  2.588936535522E-01  2.431532828380E-01  2.283449118768E-01  2.144131245555E-01
  2.013058615769E-01  1.889742209505E-01  1.773722685969E-01  1.664568588458E-01
  1.561874645703E-01  1.465260166657E-01  1.374367525590E-01  1.288860734104E-01
  1.208424096608E-01  1.132760945644E-01  1.061592453432E-01  9.946565159854E-02
  9.317067061625E-02  8.725112920548E-02  8.168523171979E-02  7.645247391594E-02
  7.153356231688E-02  6.691033875603E-02  6.256570979265E-02  5.848358070064E-02
  5.464879374644E-02  5.104707048529E-02  4.766495781896E-02  4.448977757126E-02
  4.150957935141E-02  3.871309648848E-02  3.608970483269E-02  3.362938423212E-02
  3.132268250499E-02  2.916068173930E-02  2.713496676244E-02  2.523759563380E-02
  2.346107202311E-02  2.179831934648E-02  2.024265654148E-02  1.878777536897E-02
  1.742771913944E-02  1.615686276714E-02  1.496989406227E-02  1.386179617807E-02
  1.282783113511E-02  1.186352435060E-02  1.096465010548E-02  1.012721788676E-02
  9.347459546849E-03  8.621817225573E-03  7.946931984335E-03  7.319633105401E-03
  6.736928012340E-03  6.195992770779E-03  5.694163131327E-03  5.228926079140E-03
  4.797911857033E-03  4.398886431250E-03  4.029744371159E-03  3.688502116095E-03
  3.373291604385E-03  3.082354241384E-03  2.814035184908E-03  2.566777928003E-03
  2.339119160405E-03  2.129683891387E-03  1.937180817931E-03  1.760397923350E-03
  1.598198292573E-03  1.449516131351E-03  1.313352977580E-03  1.188774093861E-03
  1.074905031231E-03  9.709283547795E-04  8.760805226052E-04  7.896489101971E-04
  7.109689729741E-04  6.394215402596E-04  5.744302344943E-04  5.154590099601E-04
  4.620098057199E-04  4.136203078656E-04  3.698618165184E-04  3.303372133410E-04
  2.946790256024E-04  2.625475830866E-04  2.336292643567E-04  2.076348290821E-04
  1.842978333037E-04  1.633731246626E-04  1.446354147436E-04  1.278779257942E-04
  1.129111091758E-04  9.956143298259E-05  8.767023633100E-05  7.709264788347E-05
  6.769656621811E-05  5.936169969986E-05  5.197866354704E-05  4.544813182090E-05
  3.968004209768E-05  3.459285061250E-05  3.011283569405E-05  2.617344733866E-05
  2.271470080316E-05  1.968261212822E-05  1.702867353850E-05  1.470936670237E-05
  1.268571187403E-05  1.092285098276E-05  9.389662779767E-06  8.058408200885E-06
  6.904404154784E-06  5.905723999830E-06  5.042923028974E-06  4.298787340443E-06
  3.658104532356E-06  3.107454721334E-06  2.635020448468E-06  2.230414100242E-06
  1.884521536844E-06  1.589360685429E-06  1.337953920940E-06  1.124213121757E-06
  9.428363513663E-07  7.892151802192E-07  6.593517236202E-07  5.497845316559E-07
  4.575225256344E-07  3.799862320348E-07  3.149556194227E-07  2.605238960341E-07
  2.150566756530E-07  1.771559669404E-07  1.456284864401E-07  1.194578380767E-07
  9.778014205423E-08  7.986273367060E-08  6.508558771962E-08  5.292515689799E-08
  4.294034303345E-08  3.476034807387E-08  2.807417770814E-08  2.262159432029E-08
  1.818533780625E-08  1.458445271070E-08  1.166857827674E-08  9.313074450998E-09
  7.414871760361E-09  5.888946382295E-09  4.665333775730E-09  3.686605014326E-09
  2.905739679096E-09  2.284337352094E-09  1.791118508048E-09  1.400670166951E-09
  1.092399854226E-09  8.474417104630E-10  6.574451375627E-10  5.086255920618E-10
  3.923847274708E-10  3.018472118526E-10  2.315310386684E-10  1.770776870050E-10
  1.350319126053E-10  1.026625720447E-10  7.781726888633E-11  5.880479264597E-11
  4.430032567059E-11  3.326924343669E-11  2.490605143469E-11  1.858560539243E-11
  1.382426749782E-11  1.024907386145E-11  7.573340218894E-12  5.577424662195E-12
  4.093607387142E-12  2.994246118145E-12  2.182528941860E-12  1.585279646963E-12
  1.147379348760E-12  8.274564210047E-13  5.945681447132E-13  4.256550216402E-13
  3.035949027477E-13  2.157210432073E-13  1.526976516845E-13  1.076698869697E-13
  7.562374897370E-14  5.290587977908E-14  3.686472179435E-14  2.558341404108E-14
  1.768176177866E-14  1.217000581184E-14  8.341280115524E-15  5.692846647103E-15
  3.868646467428E-15  2.617574385556E-15  1.763302508118E-15  1.182550025004E-15
  7.895032820857E-16  5.246946249842E-16  3.470993477025E-16  2.285448538222E-16
  1.497735867942E-16  9.768334454678E-17  6.340191722649E-17  4.095016074273E-17
  2.631810683412E-17  1.682959442604E-17  1.070746015022E-17  6.777454663786E-18
  4.267635494623E-18  2.673138372977E-18  1.665488121340E-18  1.032095389252E-18
  6.361041382814E-19  3.898865328203E-19  2.376408403486E-19  1.440282251206E-19
  8.679372374259E-20  5.200119898416E-20  3.097365743312E-20  1.833982231769E-20
  1.079419538009E-20  6.314610448843E-21  3.671404106334E-21  2.121362298268E-21
  1.218041761443E-21  0.000000000000E+00  0.000000000000E+00  0.000000000000E+00
  0.000000000000E+00  0.000000000000E+00  0.000000000000E+00  0.000000000000E+00
  0.000000000000E+00  0.000000000000E+00  0.000000000000E+00  0.000000000000E+00
  0.000000000000E+00  0.000000000000E+00
</data>
</radfunc>
</valence-charge>
<pseudocore-charge matching-radius="0.606153510745"
 number-of-continuous-derivatives="4">
<annotation model-charge-form="Teter function with specified parameters" />
<radfunc>
<data npts="291">
  1.910716999737E+02  1.910448584628E+02  1.909620472868E+02  1.908250118866E+02
  1.906345707888E+02  1.903843114195E+02  1.900656066214E+02  1.897010025772E+02
  1.892914783861E+02  1.888144885248E+02  1.882775879365E+02  1.876949135878E+02
  1.869919690673E+02  1.862592773604E+02  1.855288278745E+02  1.846892993318E+02
  1.837249921411E+02  1.828133362363E+02  1.817912555562E+02  1.806460956394E+02
  1.793639451656E+02  1.782293967094E+02  1.769890074377E+02  1.756337540624E+02
  1.741540222702E+02  1.725396072879E+02  1.707797251887E+02  1.693575499123E+02
  1.678422068971E+02  1.662285720516E+02  1.645113905409E+02  1.626852996385E+02
  1.607448569943E+02  1.586845750198E+02  1.564989621342E+02  1.541825716488E+02
  1.517300590908E+02  1.491362487729E+02  1.473260957643E+02  1.454495630963E+02
  1.435053464496E+02  1.414922335674E+02  1.394091191103E+02  1.372550205966E+02
  1.350290954370E+02  1.327306590605E+02  1.303592041155E+02  1.279144207135E+02
  1.253962176610E+02  1.228047446073E+02  1.201404150080E+02  1.174039297756E+02
  1.145963014579E+02  1.117188787495E+02  1.087733711016E+02  1.057618731552E+02
  1.026868886757E+02  9.955135362017E+01  9.635865791616E+01  9.311266548173E+01
  8.981773196016E+01  8.647871959254E+01  8.310100860027E+01  7.969050440233E+01
  7.625363995144E+01  7.279737244049E+01  6.932917360850E+01  6.759307156935E+01
  6.585701286876E+01  6.412206737554E+01  6.238933249173E+01  6.065993189133E+01
  5.893501410782E+01  5.721575096586E+01  5.550333585320E+01  5.379898182953E+01
  5.210391956918E+01  5.041939513584E+01  4.874666758770E+01  4.708700641273E+01
  4.544168879441E+01  4.381199670952E+01  4.219921386062E+01  4.060462244698E+01
  3.902949977909E+01  3.747511474346E+01  3.594272412536E+01  3.443356879933E+01
  3.294886979840E+01  3.148982427481E+01  3.005760136681E+01  2.865333798780E+01
  2.727813455579E+01  2.593305068309E+01  2.461910084793E+01  2.333725007132E+01
  2.208840962446E+01  2.087343279338E+01  1.969311072934E+01  1.854816841480E+01
  1.743926077600E+01  1.636696897473E+01  1.533179691216E+01  1.433416797893E+01
  1.337442208553E+01  1.245281300767E+01  1.156950608046E+01  1.072457627522E+01
  9.918006691309E+00  9.149687494089E+00  8.419415328136E+00  7.726893232575E+00
  7.071731082376E+00  6.453446576150E+00  5.871466787087E+00  5.325130289235E+00
  4.813689866479E+00  4.336315806168E+00  3.892099773540E+00  3.480059256904E+00
  3.099142566965E+00  2.748234366857E+00  2.426161702429E+00  2.131700495183E+00
  1.863582453139E+00  1.620502347859E+00  1.401125599108E+00  1.204096102154E+00
  1.028044226870E+00  8.715949124991E-01  7.333757775184E-01  6.120251605624E-01
  5.062000059365E-01  4.145835061106E-01  3.358924137459E-01  2.688839374416E-01
  2.123621385452E-01  1.651837511174E-01  1.262633534836E-01  9.457782774942E-02
  6.917005312919E-02  4.915178985242E-02  3.370572262789E-02  2.208664596951E-02
  1.362178789221E-02  7.710283293072E-03  3.821823427150E-03  1.494522919144E-03
  3.320603453007E-04  1.621796695012E-07  2.225124255835E-04  7.761811523160E-04
  1.486674054677E-03  2.222711711342E-03  2.890851148121E-03  3.430063393217E-03
  3.806378801052E-03  4.007706970311E-03  4.038930144609E-03  3.917358224035E-03
  3.668620209270E-03  3.323051433486E-03  2.912618800983E-03  2.468408025575E-03
  2.018678198043E-03  1.587470610019E-03  1.193741339606E-03  8.509713661045E-04
  5.671945826220E-04  3.453735861585E-04  1.840459958698E-04  7.816058188999E-05
  2.002280441011E-05  2.733983811158E-07  8.831127177106E-06  3.574130903650E-05
  7.188455755233E-05  1.095145913865E-04  1.426090761219E-04  1.670323311374E-04
  1.805224464171E-04  1.825270634147E-04  1.739210735308E-04  1.566452646763E-04
  1.333072268385E-04  1.067846045560E-04  7.986632534934E-05  5.496026535523E-05
  3.388668384340E-05  1.776657341950E-05  7.003819145397E-06  1.350713505789E-06
  3.880609527798E-08  1.951954853692E-06  5.816201959249E-06  1.038182198092E-05
  1.457635550226E-05  1.761311615054E-05  1.904676456722E-05  1.877514567192E-05
  1.699371017970E-05  1.411459400080E-05  1.066611524871E-05  7.189667440833E-06
  4.149689861378E-06  1.868893426174E-06  4.958414318979E-07  6.182265274475E-09
  0.000000000000E+00  0.000000000000E+00  0.000000000000E+00  0.000000000000E+00
  0.000000000000E+00  0.000000000000E+00  0.000000000000E+00  0.000000000000E+00
  0.000000000000E+00  0.000000000000E+00  0.000000000000E+00  0.000000000000E+00
  0.000000000000E+00  0.000000000000E+00  0.000000000000E+00  0.000000000000E+00
  0.000000000000E+00  0.000000000000E+00  0.000000000000E+00  0.000000000000E+00
  0.000000000000E+00  0.000000000000E+00  0.000000000000E+00  0.000000000000E+00
  0.000000000000E+00  0.000000000000E+00  0.000000000000E+00  0.000000000000E+00
  0.000000000000E+00  0.000000000000E+00  0.000000000000E+00  0.000000000000E+00
  0.000000000000E+00  0.000000000000E+00  0.000000000000E+00  0.000000000000E+00
  0.000000000000E+00  0.000000000000E+00  0.000000000000E+00  0.000000000000E+00
  0.000000000000E+00  0.000000000000E+00  0.000000000000E+00  0.000000000000E+00
  0.000000000000E+00  0.000000000000E+00  0.000000000000E+00  0.000000000000E+00
  0.000000000000E+00  0.000000000000E+00  0.000000000000E+00  0.000000000000E+00
  0.000000000000E+00  0.000000000000E+00  0.000000000000E+00  0.000000000000E+00
  0.000000000000E+00  0.000000000000E+00  0.000000000000E+00  0.000000000000E+00
  0.000000000000E+00  0.000000000000E+00  0.000000000000E+00  0.000000000000E+00
  0.000000000000E+00  0.000000000000E+00  0.000000000000E+00  0.000000000000E+00
  0.000000000000E+00  0.000000000000E+00  0.000000000000E+00  0.000000000000E+00
  0.000000000000E+00  0.000000000000E+00  0.000000000000E+00  0.000000000000E+00
  0.000000000000E+00  0.000000000000E+00  0.000000000000E+00  0.000000000000E+00
  0.000000000000E+00  0.000000000000E+00  0.000000000000E+00
</data>
</radfunc>
</pseudocore-charge>
<semilocal-potentials set="scalar_relativistic">
<slps n="4" l="s" rc="1.41383592476" eref="-3.49403739224">
<radfunc>
<data npts="291">
 -7.574230054562E+00 -7.577882330927E+00 -7.589146183700E+00 -7.607772149834E+00
 -7.633629416246E+00 -7.667559756719E+00 -7.710689966440E+00 -7.759922129241E+00
 -7.815080907346E+00 -7.879142136325E+00 -7.951013210472E+00 -8.028729991868E+00
 -8.122100505548E+00 -8.218973933588E+00 -8.315098707885E+00 -8.425024579309E+00
 -8.550564605441E+00 -8.668544691348E+00 -8.800007798587E+00 -8.946298249240E+00
 -9.108844780863E+00 -9.251595688103E+00 -9.406513859372E+00 -9.574421595641E+00
 -9.756155304176E+00 -9.952556764894E+00 -1.016446247162E+01 -1.033405985158E+01
 -1.051317328634E+01 -1.070212220308E+01 -1.090120712872E+01 -1.111070480422E+01
 -1.133086288593E+01 -1.156189425303E+01 -1.180397095123E+01 -1.205721781533E+01
 -1.232170582560E+01 -1.259744526633E+01 -1.278749701928E+01 -1.298249030537E+01
 -1.318237432655E+01 -1.338708172832E+01 -1.359652772083E+01 -1.381060922758E+01
 -1.402920406873E+01 -1.425217018620E+01 -1.447934491754E+01 -1.471054432506E+01
 -1.494556258676E+01 -1.518417145444E+01 -1.542611978428E+01 -1.567113314387E+01
 -1.591891349896E+01 -1.616913898214E+01 -1.642146374445E+01 -1.667551788974E+01
 -1.693090749040E+01 -1.718721468192E+01 -1.744399783255E+01 -1.770079178340E+01
 -1.795710815335E+01 -1.821243570276E+01 -1.846624074953E+01 -1.871796763107E+01
 -1.896703920651E+01 -1.921285739416E+01 -1.945480374102E+01 -1.957412628444E+01
 -1.969224002324E+01 -1.980906219405E+01 -1.992450887893E+01 -2.003849502729E+01
 -2.015093447870E+01 -2.026173998654E+01 -2.037082324276E+01 -2.047809490388E+01
 -2.058346461832E+01 -2.068684105543E+01 -2.078813193622E+01 -2.088724406626E+01
 -2.098408337084E+01 -2.107855493282E+01 -2.117056303327E+01 -2.126001119554E+01
 -2.134680223271E+01 -2.143083829915E+01 -2.151202094628E+01 -2.159025118300E+01
 -2.166542954122E+01 -2.173745614672E+01 -2.180623079588E+01 -2.187165303843E+01
 -2.193362226678E+01 -2.199203781204E+01 -2.204679904722E+01 -2.209780549763E+01
 -2.214495695899E+01 -2.218815362317E+01 -2.222729621185E+01 -2.226228611819E+01
 -2.229302555650E+01 -2.231941772000E+01 -2.234136694654E+01 -2.235877889238E+01
 -2.237156071374E+01 -2.237962125618E+01 -2.238287125164E+01 -2.238122352296E+01
 -2.237459319592E+01 -2.236289791863E+01 -2.234605808830E+01 -2.232399708540E+01
 -2.229664151541E+01 -2.226392145822E+01 -2.222577072557E+01 -2.218212712687E+01
 -2.213293274390E+01 -2.207813421485E+01 -2.201768302846E+01 -2.195153582893E+01
 -2.187965473227E+01 -2.180200765498E+01 -2.171856865568E+01 -2.162931829052E+01
 -2.153424398296E+01 -2.143334040832E+01 -2.132660989359E+01 -2.121406283246E+01
 -2.109571811560E+01 -2.097160357548E+01 -2.084175644531E+01 -2.070622383064E+01
 -2.056506319227E+01 -2.041834283862E+01 -2.026614242513E+01 -2.010855345834E+01
 -1.994567980159E+01 -1.977763817951E+01 -1.960455867837E+01 -1.942658523932E+01
 -1.924387614252E+01 -1.905660448053E+01 -1.886495862089E+01 -1.866914265938E+01
 -1.846937686819E+01 -1.826589814582E+01 -1.805896048022E+01 -1.784883544088E+01
 -1.763581272208E+01 -1.742020076625E+01 -1.720232750462E+01 -1.698254126140E+01