<?xml version="1.0" encoding="UTF-8" ?>
<psml version="1.1" energy_unit="hartree" length_unit="bohr"
 uuid="1fd95040-23d2-11e8-491b-46ffefefcee6"
 xmlns="http://esl.cecam.org/PSML/ns/1.1">
<provenance creator="ONCVPSP-3.3.0+psml-3.3.0-73 (scalar-relativistic)"
 date="2018-03-09">
<annotation action="semilocal-pseudopotential-generation"
 action-cont="projectors-generation" />
<input-file name="oncvpsp-input">
<![CDATA[# atsym z nc nv iexc psfile
Al 13 3 2 -001012 upf
# n l f
1 0 2.0
2 0 2.0
2 1 6.0
3 0 2.0
3 1 1.0
# lmax
2
# l rc ep ncon nbas qcut
0 1.75 0.0 4 9 6.0
1 1.75 0.0 4 9 6.4
2 1.7 0.05 4 9 5.2
# lloc lpopt rc5 dvloc0
4 5 1.4 0.0
# l nproj debl
0 2 2.8
1 2 2.8
2 2 1.5
# icmod fcfact rcfact
3 5.0 1.3
# epsh1 epsh2 depsh
-12.0 12.0 0.02
# rlmax drl
6.0 0.01
 0
]]>
</input-file>
</provenance>
<pseudo-atom-spec atomic-label="Al" atomic-number="13" z-pseudo="3"
 flavor="Hamann&apos;s oncvpsp" relativity="scalar" spin-dft="no"
 core-corrections="yes">
<annotation pseudo-energy="-1.97017594533" />
<exchange-correlation>
<annotation oncvpsp-xc-code="-1012" oncvpsp-xc-type="libxc-interface" />
<libxc-info number-of-functionals="2">
<functional name="Slater exchange (LDA)" type="exchange" id="1" />
<functional name="Perdew &amp; Wang (LDA)" type="correlation" id="12" />
</libxc-info>
</exchange-correlation>
<valence-configuration total-valence-charge="3">
<shell n="3" l="s" occupation="2" />
<shell n="3" l="p" occupation="1" />
</valence-configuration>
</pseudo-atom-spec>
<grid npts="457">
<annotation type="sampled from oncvpsp log grid"
 recipe="r(i:1..N) = r1*exp(a*(i-1)) + r=0; resampled"
 recipe-cont="r1: scale; a: step" scale="0.384615384615E-04"
 step="0.119285708653E-01" delta="0.500000000000E-02" rmax="44.2819035286" />
<grid-data>
  0.000000000000E+00  5.056572821787E-03  1.010010738593E-02  1.515177164649E-02
  2.017417187544E-02  2.530611364749E-02  3.062764849307E-02  3.576517189487E-02
  4.077988101034E-02  4.594635663797E-02  5.115353977107E-02  5.627555565467E-02
  6.191044018488E-02  6.730192393188E-02  7.316292617862E-02  7.859124016080E-02
  8.442230720698E-02  8.961068135315E-02  9.511791940120E-02  1.009636178924E-01
  1.071685777200E-01  1.124060060732E-01  1.178993924351E-01  1.236612457124E-01
  1.297046861337E-01  1.360434751253E-01  1.426920466473E-01  1.478908498626E-01
  1.532790648602E-01  1.588635926174E-01  1.646515855399E-01  1.706504566222E-01
  1.768678889419E-01  1.833118454995E-01  1.899905794176E-01  1.969126445107E-01
  2.040869062406E-01  2.115225530709E-01  2.166295535922E-01  2.218598575342E-01
  2.272164419345E-01  2.327023557085E-01  2.383207213848E-01  2.440747368819E-01
  2.499676773291E-01  2.560028969306E-01  2.621838308741E-01  2.685139972867E-01
  2.749969992372E-01  2.816365267868E-01  2.884363590895E-01  2.954003665434E-01
  3.025325129932E-01  3.098368579869E-01  3.173175590861E-01  3.249788742327E-01
  3.328251641722E-01  3.408608949359E-01  3.490906403833E-01  3.575190848047E-01
  3.661510255882E-01  3.749913759500E-01  3.840451677310E-01  3.933175542607E-01
  4.028138132907E-01  4.125393499988E-01  4.224997000652E-01  4.275696964660E-01
  4.327005328236E-01  4.378929392174E-01  4.431476544881E-01  4.484654263419E-01
  4.538470114580E-01  4.592931755955E-01  4.648046937027E-01  4.703823500271E-01
  4.760269382274E-01  4.817392614861E-01  4.875201326240E-01  4.933703742155E-01
  4.992908187060E-01  5.052823085305E-01  5.113456962329E-01  5.174818445877E-01
  5.236916267227E-01  5.299759262434E-01  5.363356373583E-01  5.427716650066E-01
  5.492849249867E-01  5.558763440865E-01  5.625468602156E-01  5.692974225382E-01
  5.761289916086E-01  5.830425395079E-01  5.900390499820E-01  5.971195185818E-01
  6.042849528048E-01  6.115363722385E-01  6.188748087053E-01  6.263013064098E-01
  6.338169220867E-01  6.414227251517E-01  6.491197978536E-01  6.569092354278E-01
  6.647921462529E-01  6.727696520080E-01  6.808428878321E-01  6.890130024860E-01
  6.972811585159E-01  7.056485324181E-01  7.141163148071E-01  7.226857105848E-01
  7.313579391118E-01  7.401342343811E-01  7.490158451937E-01  7.580040353360E-01
  7.671000837601E-01  7.763052847652E-01  7.856209481824E-01  7.950483995606E-01
  8.045889803553E-01  8.142440481195E-01  8.240149766970E-01  8.339031564173E-01
  8.439099942943E-01  8.540369142259E-01  8.642853571966E-01  8.746567814830E-01
  8.851526628607E-01  8.957744948151E-01  9.065237887529E-01  9.174020742179E-01
  9.284108991085E-01  9.395518298978E-01  9.508264518566E-01  9.622363692789E-01
  9.737832057102E-01  9.854686041787E-01  9.972942274289E-01  1.009261758158E+00
  1.021372899256E+00  1.033629374047E+00  1.046032926536E+00  1.058585321654E+00
  1.071288345514E+00  1.084143805660E+00  1.097153531328E+00  1.110319373704E+00
  1.123643206188E+00  1.137126924663E+00  1.150772447759E+00  1.164581717132E+00
  1.178556697737E+00  1.192699378110E+00  1.207011770647E+00  1.221495911895E+00
  1.236153862838E+00  1.250987709192E+00  1.265999561702E+00  1.281191556443E+00
  1.296565855120E+00  1.312124645381E+00  1.327870141126E+00  1.343804582819E+00
  1.359930237813E+00  1.376249400667E+00  1.392764393475E+00  1.409477566197E+00
  1.426391296991E+00  1.443507992555E+00  1.460830088466E+00  1.478360049527E+00
  1.496100370122E+00  1.514053574563E+00  1.532222217458E+00  1.550608884067E+00
  1.569216190676E+00  1.588046784964E+00  1.607103346384E+00  1.626388586540E+00
  1.645905249579E+00  1.665656112574E+00  1.685643985925E+00  1.705871713756E+00
  1.726342174321E+00  1.747058280413E+00  1.768022979778E+00  1.789239255535E+00
  1.810710126601E+00  1.832438648121E+00  1.854427911898E+00  1.876681046841E+00
  1.899201219403E+00  1.921991634036E+00  1.945055533644E+00  1.968396200048E+00
  1.992016954449E+00  2.015921157902E+00  2.040112211797E+00  2.064593558338E+00
  2.089368681038E+00  2.114441105211E+00  2.139814398473E+00  2.165492171255E+00
  2.191478077310E+00  2.217775814238E+00  2.244389124009E+00  2.271321793497E+00
  2.298577655019E+00  2.326160586879E+00  2.354074513922E+00  2.382323408089E+00
  2.410911288986E+00  2.439842224453E+00  2.469120331147E+00  2.498749775121E+00
  2.528734772422E+00  2.559079589691E+00  2.589788544768E+00  2.620866007305E+00
  2.652316399392E+00  2.684144196185E+00  2.716353926539E+00  2.748950173658E+00
  2.781937575742E+00  2.815320826651E+00  2.849104676570E+00  2.883293932689E+00
  2.917893459882E+00  2.952908181400E+00  2.988343079577E+00  3.024203196532E+00
  3.060493634890E+00  3.097219558509E+00  3.134386193211E+00  3.171998827530E+00
  3.210062813460E+00  3.248583567221E+00  3.287566570028E+00  3.327017368868E+00
  3.366941577295E+00  3.407344876222E+00  3.448233014737E+00  3.489611810914E+00
  3.531487152645E+00  3.573864998477E+00  3.616751378458E+00  3.660152395000E+00
  3.704074223740E+00  3.748523114425E+00  3.793505391798E+00  3.839027456499E+00
  3.885095785977E+00  3.931716935409E+00  3.978897538634E+00  4.026644309098E+00
  4.074964040807E+00  4.123863609296E+00  4.173349972608E+00  4.223430172279E+00
  4.274111334347E+00  4.325400670359E+00  4.377305478403E+00  4.429833144144E+00
  4.482991141874E+00  4.536787035576E+00  4.591228480003E+00  4.646323221763E+00
  4.702079100424E+00  4.758504049629E+00  4.815606098225E+00  4.873393371404E+00
  4.931874091860E+00  4.991056580963E+00  5.050949259934E+00  5.111560651053E+00
  5.172899378866E+00  5.234974171413E+00  5.297793861469E+00  5.361367387807E+00
  5.425703796461E+00  5.490812242018E+00  5.556701988923E+00  5.623382412790E+00
  5.690863001743E+00  5.759153357764E+00  5.828263198057E+00  5.898202356434E+00
  5.968980784711E+00  6.040608554128E+00  6.113095856777E+00  6.186453007058E+00
  6.260690443143E+00  6.335818728461E+00  6.411848553202E+00  6.488790735841E+00
  6.566656224671E+00  6.645456099367E+00  6.725201572559E+00  6.805903991430E+00
  6.887574839327E+00  6.970225737399E+00  7.053868446248E+00  7.138514867603E+00
  7.224177046014E+00  7.310867170566E+00  7.398597576613E+00  7.487380747532E+00
  7.577229316503E+00  7.668156068301E+00  7.760173941121E+00  7.853296028414E+00
  7.947535580755E+00  8.042906007724E+00  8.139420879817E+00  8.237093930374E+00
  8.335939057539E+00  8.435970326229E+00  8.537201970144E+00  8.639648393786E+00
  8.743324174511E+00  8.848244064606E+00  8.954422993381E+00  9.061876069301E+00
  9.170618582133E+00  9.280666005119E+00  9.392033997180E+00  9.504738405146E+00
  9.618795266008E+00  9.734220809200E+00  9.851031458910E+00  9.969243836417E+00
  1.008887476245E+01  1.020994125960E+01  1.033246055472E+01  1.045645008138E+01
  1.058192748235E+01  1.070891061214E+01  1.083741753949E+01  1.096746654996E+01
  1.109907614856E+01  1.123226506234E+01  1.136705224309E+01  1.150345687001E+01
  1.164149835245E+01  1.178119633268E+01  1.192257068867E+01  1.206564153693E+01
  1.221042923538E+01  1.235695438620E+01  1.250523783884E+01  1.265530069290E+01
  1.280716430122E+01  1.296085027283E+01  1.311638047610E+01  1.327377704182E+01
  1.343306236632E+01  1.359425911472E+01  1.375739022409E+01  1.392247890678E+01
  1.408954865366E+01  1.425862323751E+01  1.442972671636E+01  1.460288343695E+01
  1.477811803820E+01  1.495545545465E+01  1.513492092011E+01  1.531653997115E+01
  1.550033845081E+01  1.568634251222E+01  1.587457862236E+01  1.606507356583E+01
  1.625785444862E+01  1.645294870200E+01  1.665038408643E+01  1.685018869546E+01
  1.705239095981E+01  1.725701965133E+01  1.746410388714E+01  1.767367313379E+01
  1.788575721140E+01  1.810038629793E+01  1.831759093351E+01  1.853740202471E+01
  1.875985084901E+01  1.898496905919E+01  1.921278868790E+01  1.944334215216E+01
  1.967666225798E+01  1.991278220508E+01  2.015173559154E+01  2.039355641864E+01
  2.063827909566E+01  2.088593844481E+01  2.113656970615E+01  2.139020854262E+01
  2.164689104513E+01  2.190665373768E+01  2.216953358253E+01  2.243556798552E+01
  2.270479480134E+01  2.297725233896E+01  2.325297936703E+01  2.353201511943E+01
  2.381439930087E+01  2.410017209248E+01  2.438937415759E+01  2.468204664748E+01
  2.497823120725E+01  2.527796998173E+01  2.558130562151E+01  2.588828128897E+01
  2.619894066444E+01  2.651332795241E+01  2.683148788784E+01  2.715346574250E+01
  2.747930733141E+01  2.780905901938E+01  2.814276772762E+01  2.848048094035E+01
  2.882224671163E+01  2.916811367217E+01  2.951813103624E+01  2.987234860867E+01
  3.023081679198E+01  3.059358659348E+01  3.096070963260E+01  3.133223814819E+01
  3.170822500597E+01  3.208872370604E+01  3.247378839052E+01  3.286347385120E+01
  3.325783553742E+01  3.365692956387E+01  3.406081271863E+01  3.446954247126E+01
  3.488317698091E+01  3.530177510468E+01  3.572539640594E+01  3.615410116281E+01
  3.658795037676E+01  3.702700578128E+01  3.747132985066E+01  3.792098580887E+01
  3.837603763857E+01  3.883655009024E+01  3.930258869132E+01  3.977421975562E+01
  4.025151039268E+01  4.073452851739E+01  4.122334285960E+01  4.171802297392E+01
  4.221863924961E+01  4.272526292060E+01  4.323796607565E+01  4.375682166856E+01
  4.428190352858E+01
</grid-data>
</grid>
<valence-charge total-charge="3" is-unscreening-charge="yes"
 rescaled-to-z-pseudo="no">
<radfunc>
<data npts="457">
  2.929752431085E-02  2.930404606521E-02  2.932354293336E-02  2.935607465238E-02
  2.940131378452E-02  2.946081427115E-02  2.953667306962E-02  2.962357419072E-02
  2.972133164278E-02  2.983539473669E-02  2.996404446300E-02  3.010397599178E-02
  3.027322860792E-02  3.045015725939E-02  3.065908448118E-02  3.086796899139E-02
  3.110878969715E-02  3.133734611467E-02  3.159462089404E-02  3.188419204347E-02
  3.221007612759E-02  3.249993968265E-02  3.281847543839E-02  3.316848678650E-02
  3.355304559073E-02  3.397551708145E-02  3.443958698864E-02  3.481735211800E-02
  3.522262082941E-02  3.565736445990E-02  3.612369235087E-02  3.662386128927E-02
  3.716028560945E-02  3.773554800971E-02  3.835241114333E-02  3.901383004868E-02
  3.972296548895E-02  4.048319827676E-02  4.102018317378E-02  4.158261302521E-02
  4.217167287275E-02  4.278860224173E-02  4.343469768144E-02  4.411131542683E-02
  4.481987418524E-02  4.556185805103E-02  4.633881955019E-02  4.715238281545E-02
  4.800424689118E-02  4.889618916534E-02  4.983006892339E-02  5.080783101651E-02
  5.183150963326E-02  5.290323216016E-02  5.402522311278E-02  5.519980811426E-02
  5.642941789346E-02  5.771659226966E-02  5.906398408559E-02  6.047436304488E-02
  6.195061940547E-02  6.349576747531E-02  6.511294885357E-02  6.680543535782E-02
  6.857663157711E-02  7.043007699267E-02  7.236944761216E-02  7.337254123991E-02
  7.439855707156E-02  7.544799340380E-02  7.652135716989E-02  7.761916392419E-02
  7.874193781759E-02  7.989021156407E-02  8.106452639868E-02  8.226543202740E-02
  8.349348656937E-02  8.474925649216E-02  8.603331654074E-02  8.734624966096E-02
  8.868864691845E-02  9.006110741379E-02  9.146423819491E-02  9.289865416765E-02
  9.436497800532E-02  9.586384005800E-02  9.739587826218E-02  9.896173805112E-02
  1.005620722658E-01  1.021975410663E-01  1.038688118423E-01  1.055765591216E-01
  1.073214644735E-01  1.091042164047E-01  1.109255102423E-01  1.127860479986E-01
  1.146865382103E-01  1.166276957435E-01  1.186102415526E-01  1.206349023816E-01
  1.227024103911E-01  1.248135026933E-01  1.269689207752E-01  1.291694097852E-01
  1.314157176564E-01  1.337085940368E-01  1.360487889925E-01  1.384370514463E-01
  1.408741273125E-01  1.433607572813E-01  1.458976742087E-01  1.484856000583E-01
  1.511252423447E-01  1.538172900218E-01  1.565624087593E-01  1.593612355518E-01
  1.622143726010E-01  1.651223804173E-01  1.680857700871E-01  1.711049946564E-01
  1.741804395901E-01  1.773124122690E-01  1.805011305019E-01  1.837467100390E-01
  1.870491510874E-01  1.904083238476E-01  1.938239531084E-01  1.972956019594E-01
  2.008226547037E-01  2.044042990819E-01  2.080395079440E-01  2.117270205365E-01
  2.154653236043E-01  2.192526325353E-01  2.230868728092E-01  2.269656620384E-01
  2.308862929180E-01  2.348457174247E-01  2.388405326206E-01  2.428669684307E-01
  2.469208777657E-01  2.509977293533E-01  2.550926036240E-01  2.592001919637E-01
  2.633147996015E-01  2.674303523357E-01  2.715404072272E-01  2.756381672910E-01
  2.797165001118E-01  2.837679601826E-01  2.877848146337E-01  2.917590718781E-01
  2.956825125550E-01  2.995467220133E-01  3.033431234500E-01  3.070630107084E-01
  3.106975796619E-01  3.142379570682E-01  3.176752257875E-01  3.210004453229E-01
  3.242046667790E-01  3.272789415397E-01  3.302143232556E-01  3.330018631009E-01
  3.356325987063E-01  3.380975376925E-01  3.403876373087E-01  3.424937822945E-01
  3.444067637193E-01  3.461172621644E-01  3.476158391721E-01  3.488929413416E-01
  3.499389217526E-01  3.507440834964E-01  3.512987499292E-01  3.515933657946E-01
  3.516186325359E-01  3.513656799215E-01  3.508262745209E-01  3.499930636209E-01
  3.488598509164E-01  3.474218978386E-01  3.456762418306E-01  3.436220204213E-01
  3.412607877788E-01  3.385968087764E-01  3.356373146972E-01  3.323924932584E-01
  3.288745198860E-01  3.250959998061E-01  3.210696491281E-01  3.168085358712E-01
  3.123259062377E-01  3.076351641342E-01  3.027498273426E-01  2.976834866457E-01
  2.924497658141E-01  2.870622825249E-01  2.815346103250E-01  2.758802417436E-01
  2.701125526541E-01  2.642447679845E-01  2.582899288659E-01  2.522608613075E-01
  2.461701464759E-01  2.400300926534E-01  2.338527089364E-01  2.276496807345E-01
  2.214323471147E-01  2.152116800304E-01  2.089982654651E-01  2.028022865114E-01
  1.966335083944E-01  1.905012654431E-01  1.844144500015E-01  1.783815032623E-01
  1.724104079994E-01  1.665086831640E-01  1.606833803046E-01  1.549410817600E-01
  1.492879005713E-01  1.437294820489E-01  1.382710069258E-01  1.329171960254E-01
  1.276723163632E-01  1.225401886001E-01  1.175241957625E-01  1.126272931384E-01
  1.078520192595E-01  1.032005078754E-01  9.867450082764E-02  9.427536172683E-02
  9.000409034120E-02  8.586133760127E-02  8.184742112910E-02  7.796234120119E-02
  7.420579705653E-02  7.057720346424E-02  6.707570746494E-02  6.370020521054E-02
  6.044935882196E-02  5.732161319372E-02  5.431521267632E-02  5.142821757194E-02
  4.865852038320E-02  4.600386175907E-02  4.346184608670E-02  4.102995668233E-02
  3.870557053912E-02  3.648597259416E-02  3.436836948149E-02  3.234990274251E-02
  3.042766146906E-02  2.859869435938E-02  2.686002117041E-02  2.520864355460E-02
  2.364155527260E-02  2.215575177713E-02  2.074823916653E-02  1.941604250976E-02
  1.815621354776E-02  1.696583777848E-02  1.584204093586E-02  1.478199487549E-02
  1.378292288071E-02  1.284210440657E-02  1.195687927945E-02  1.112465137202E-02
  1.034289177451E-02  9.609141484528E-03  8.921013638086E-03  8.276195305641E-03
  7.672448877231E-03  7.107613061183E-03  6.579603521051E-03  6.086413175485E-03
  5.626112185592E-03  5.196847654112E-03  4.796843060382E-03  4.424397454546E-03
  4.077884433928E-03  3.755750923783E-03  3.456515783916E-03  3.178768261825E-03
  2.921166312168E-03  2.682434801404E-03  2.461363615522E-03  2.256805687758E-03
  2.067674962201E-03  1.892944308153E-03  1.731643399078E-03  1.582856568960E-03
  1.445720657842E-03  1.319422857348E-03  1.203198565983E-03  1.096329263055E-03
  9.981404091530E-04  9.079993801943E-04  8.253134412315E-04  7.495277653787E-04
  6.801235024537E-04  6.166159012079E-04  5.585524883347E-04  5.055113068191E-04
  4.570992156000E-04  4.129502519840E-04  3.727240577514E-04  3.361043694521E-04
  3.027975729825E-04  2.725313221766E-04  2.450532208226E-04  2.201295672361E-04
  1.975441602801E-04  1.770971655087E-04  1.586040399398E-04  1.418945138130E-04
  1.268116275738E-04  1.132108222312E-04  1.009590811680E-04  8.993412143413E-05
  8.002363252622E-05  7.112456064245E-05  6.314243640473E-05  5.599074405548E-05
  4.959033016175E-05  4.386884989494E-05  3.876024899686E-05  3.420427959224E-05
  3.014604806167E-05  2.653559324694E-05  2.332749332126E-05  2.048049971976E-05
  1.795719658874E-05  1.572368427695E-05  1.374928545552E-05  1.200627251681E-05
  1.046961496486E-05  9.116745570662E-06  7.927344125554E-06  6.883137683141E-06
  5.967716236362E-06  5.166362829982E-06  4.465897160745E-06  3.854531767225E-06
  3.321739959316E-06  2.858134683151E-06  2.455357561227E-06  2.105977389617E-06
  1.803397414445E-06  1.541770748381E-06  1.315923324819E-06  1.121283822694E-06
  9.538200286928E-07  8.099811359017E-07  6.866455088269E-07  5.810734742483E-07
  4.908647255820E-07  4.139199553643E-07  3.484063561789E-07  2.927266548589E-07
  2.454913681416E-07  2.054939901640E-07  1.716888432894E-07  1.431713437736E-07
  1.191604527434E-07  9.898310088814E-08  8.206039218623E-08  6.789540792657E-08
  5.606244726482E-08  4.619755460324E-08  3.799019722922E-08  3.117596891916E-08
  2.553020664226E-08  2.086241811422E-08  1.701142778624E-08  1.384115794366E-08
  1.123696996554E-08  9.102498496115E-09  7.356918337378E-09  5.932590323760E-09
  4.773038321438E-09  3.831214841042E-09  3.068017598537E-09  2.451023739040E-09
  1.953412385755E-09  1.553049723479E-09  1.231714004575E-09  9.744407049196E-10
  7.689705868275E-10  6.052856725519E-10  4.752201213897E-10  3.721347599074E-10
  2.906455609814E-10  2.263977243430E-10  1.758781986860E-10  1.362605212098E-10
  1.052767513446E-10  8.111205652063E-11  6.231818305947E-11  4.774262714547E-11
  3.647082072637E-11  2.777907532273E-11  2.109639224662E-11  1.597355882015E-11
  1.205821411352E-11  9.074790926957E-12  6.808428903248E-12  5.092111766602E-12
  3.796414110092E-12  2.821353706504E-12  2.089937306049E-12  1.543064172301E-12
  1.135514663315E-12  8.328031077252E-13  6.087168688261E-13  4.433983780891E-13
  3.218553649150E-13  2.328076205164E-13  1.677973449368E-13  1.205052211449E-13
  8.622649408476E-14  6.147105098558E-14  4.365925451473E-14  3.089144618349E-14
  2.177392123586E-14  1.528803003453E-14  1.069209035413E-14  7.448167177033E-15
  5.167626909232E-15  3.570810343434E-15  2.457282477217E-15  1.683970515889E-15
  1.149167087083E-15  7.808706508099E-16  5.283234723020E-16  3.558958984604E-16
  2.386851730338E-16  1.593617584303E-16  1.059194080938E-16  7.007708016176E-17
  4.614890926824E-17  3.024875778233E-17  1.973284363612E-17  1.281099564672E-17
  8.276789237872E-18  5.321095967991E-18  3.403881829618E-18  2.166484735636E-18
  1.371884891937E-18  8.642375073474E-19  5.415938135689E-19  3.376060546619E-19
  2.093204970809E-19  0.000000000000E+00  0.000000000000E+00  0.000000000000E+00
  0.000000000000E+00
</data>
</radfunc>
</valence-charge>
<pseudocore-charge matching-radius="1.39276439348"
 number-of-continuous-derivatives="4">
<annotation model-charge-form="Teter function with specified parameters" />
<radfunc>
<data npts="290">
  1.871743203321E+00  1.871697079386E+00  1.871559189339E+00  1.871329107665E+00
  1.871009145103E+00  1.870588303695E+00  1.870051741063E+00  1.869437046707E+00
  1.868745526169E+00  1.867938618123E+00  1.867028466290E+00  1.866038436848E+00
  1.864840875101E+00  1.863588910219E+00  1.862110410057E+00  1.860632103409E+00
  1.858927659031E+00  1.857309912145E+00  1.855488789506E+00  1.853438948908E+00
  1.851131950943E+00  1.849079889554E+00  1.846824815559E+00  1.844346915525E+00
  1.841624499182E+00  1.838633833664E+00  1.835348965702E+00  1.832675278040E+00
  1.829807279589E+00  1.826731172318E+00  1.823432228149E+00  1.819894734015E+00
  1.816101934900E+00  1.812035975051E+00  1.807677837526E+00  1.803007282376E+00
  1.798002783774E+00  1.792641466525E+00  1.788857088354E+00  1.784895801385E+00
  1.780749747476E+00  1.776410760696E+00  1.771870359523E+00  1.767119739326E+00
  1.762149765206E+00  1.756950965271E+00  1.751513524434E+00  1.745827278840E+00
  1.739881711018E+00  1.733665945882E+00  1.727168747722E+00  1.720378518306E+00
  1.713283296266E+00  1.705870757943E+00  1.698128219851E+00  1.690042642996E+00
  1.681600639235E+00  1.672788479934E+00  1.663592107164E+00  1.653997147719E+00
  1.643988930235E+00  1.633552505726E+00  1.622672671869E+00  1.611334001393E+00
  1.599520874926E+00  1.587217518706E+00  1.574408047554E+00  1.567808536145E+00
  1.561076513533E+00  1.554209985405E+00  1.547206960733E+00  1.540065453848E+00
  1.532783486632E+00  1.525359090833E+00  1.517790310489E+00  1.510075204486E+00
  1.502211849238E+00  1.494198341505E+00  1.486032801340E+00  1.477713375177E+00
  1.469238239063E+00  1.460605602029E+00  1.451813709619E+00  1.442860847560E+00
  1.433745345596E+00  1.424465581469E+00  1.415019985069E+00  1.405407042738E+00
  1.395625301743E+00  1.385673374910E+00  1.375549945428E+00  1.365253771815E+00
  1.354783693060E+00  1.344138633924E+00  1.333317610416E+00  1.322319735429E+00
  1.311144224548E+00  1.299790402013E+00  1.288257706848E+00  1.276545699146E+00
  1.264654066498E+00  1.252582630582E+00  1.240331353878E+00  1.227900346530E+00
  1.215289873324E+00  1.202500360784E+00  1.189532404376E+00  1.176386775807E+00
  1.163064430399E+00  1.149566514538E+00  1.135894373167E+00  1.122049557321E+00
  1.108033831671E+00  1.093849182065E+00  1.079497823046E+00  1.064982205314E+00
  1.050305023117E+00  1.035469221534E+00  1.020478003630E+00  1.005334837446E+00
  9.900434627872E-01  9.746078977894E-01  9.590324452048E-01  9.433216983868E-01
  9.274805469221E-01  9.115141818702E-01  8.954281005644E-01  8.792281109273E-01
  8.629203352511E-01  8.465112133926E-01  8.300075053295E-01  8.134162930246E-01
  7.967449815405E-01  7.800012993501E-01  7.631932977837E-01  7.463293495530E-01
  7.294181462940E-01  7.124686950689E-01  6.954903137652E-01  6.784926253359E-01
  6.614855508192E-01  6.444793010818E-01  6.274843672307E-01  6.105115096376E-01
  5.935717455281E-01  5.766763350860E-01  5.598367660307E-01  5.430647366276E-01
  5.263721370996E-01  5.097710294108E-01  4.932736254032E-01  4.768922632725E-01
  4.606393823793E-01  4.445274964008E-01  4.285691648369E-01  4.127769628988E-01
  3.971634498166E-01  3.817411356176E-01  3.665224464389E-01  3.515196884541E-01
  3.367450105066E-01  3.222103655599E-01  3.079274710910E-01  2.939077685689E-01
  2.801623821783E-01  2.667020769669E-01  2.535372166107E-01  2.406777210103E-01
  2.281330239486E-01  2.159120310568E-01  2.040230783523E-01  1.924738916274E-01
  1.812715469809E-01  1.704224327998E-01  1.599322135071E-01  1.498057954002E-01
  1.400472949149E-01  1.306600096483E-01  1.216463924791E-01  1.130080291195E-01
  1.047456194267E-01  9.685896279206E-02  8.934694791263E-02  8.220754722830E-02
  7.543781628763E-02  6.903389827431E-02  6.299103389432E-02  5.730357678495E-02
  5.196501456372E-02  4.696799558714E-02  4.230436143624E-02  3.796518508911E-02
  3.394081467941E-02  3.022092267567E-02  2.679456024921E-02  2.365021652953E-02
  2.077588237630E-02  1.815911822691E-02  1.578712551011E-02  1.364682104963E-02
  1.172491381900E-02  1.000798335138E-02  8.482559056686E-03  7.135199655465E-03
  5.952571904892E-03  4.921527769398E-03  4.029179177375E-03  3.262969507722E-03
  2.610740966500E-03  2.060797045523E-03  1.601959301762E-03  1.223617759236E-03
  9.157743134448E-04  6.690786117413E-04  4.748559905463E-04  3.251271703655E-04
  2.126195405071E-04  1.307700048131E-04  7.371950493647E-05  3.629948560040E-05
  1.401071343509E-05  2.995003694121E-06  5.435532769600E-10  2.341622859420E-06
  7.853689272906E-06  1.484473108280E-05  2.204405426975E-05  2.854955784982E-05
  3.377462100771E-05  3.739569566284E-05  3.930164846513E-05  3.954581735620E-05
  3.830164140396E-05  3.582259137045E-05  3.240697623533E-05  2.836803250615E-05
  2.400952431642E-05  1.960689945215E-05  1.539386642188E-05  1.155408752994E-05
  8.217529515186E-06  5.460883069179E-06  3.311360995441E-06  1.753116279213E-06
  7.354887848359E-07  1.822938398815E-07  1.406867858467E-09  9.397281304978E-08
  3.626727871957E-07  7.186068711540E-07  1.086493632127E-06  1.408034993635E-06
  1.643440488099E-06  1.771238633429E-06  1.786616970106E-06  1.698619312420E-06
  1.526584067185E-06  1.296228468957E-06  1.035770308146E-06  7.724339115606E-07
  5.296160273263E-07  3.248972600150E-07  1.689847225504E-07  6.557129695167E-08
  1.200586412732E-08  5.955480153152E-10  2.031197199824E-08  5.865267311289E-08
  1.034170170979E-07  1.441908582721E-07  1.733904748331E-07  1.867862816326E-07
  1.835012950100E-07  1.655487509218E-07  1.370289583793E-07  1.031406964640E-07
  6.917343549538E-08  3.963303721591E-08  1.761854762505E-08  4.517502754323E-09
  3.023910436237E-11  0.000000000000E+00  0.000000000000E+00  0.000000000000E+00
  0.000000000000E+00  0.000000000000E+00  0.000000000000E+00  0.000000000000E+00
  0.000000000000E+00  0.000000000000E+00
</data>
</radfunc>
</pseudocore-charge>
<semilocal-potentials set="scalar_relativistic">
<slps n="3" l="s" rc="1.76802297978" eref="-0.287752471304">
<radfunc>
<data npts="290">
  5.293409648735E+00  5.293179847108E+00  5.292492340411E+00  5.291343494664E+00
  5.289742368621E+00  5.287630276657E+00  5.284927303388E+00  5.281816879187E+00
  5.278300118105E+00  5.274173157830E+00  5.269488143239E+00  5.264356132084E+00
  5.258098920950E+00  5.251500222671E+00  5.243633105559E+00  5.235687487776E+00
  5.226429155731E+00  5.217546842091E+00  5.207439084348E+00  5.195926426438E+00
  5.182801289890E+00  5.170979967837E+00  5.157833397000E+00  5.143203916251E+00
  5.126914302457E+00  5.108765453840E+00  5.088533887909E+00  5.071843816606E+00
  5.053725332301E+00  5.034051744544E+00  5.012685568187E+00  4.989477859933E+00
  4.964267588528E+00  4.936881062260E+00  4.907131442801E+00  4.874818380492E+00
  4.839727812741E+00  4.801631974382E+00  4.774446584781E+00  4.745743924933E+00
  4.715446915249E+00  4.683476222823E+00  4.649750468221E+00  4.614186481469E+00
  4.576699612101E+00  4.537204098180E+00  4.495613499041E+00  4.451841196297E+00
  4.405800967215E+00  4.357407634000E+00  4.306577791724E+00  4.253230616608E+00
  4.197288755049E+00  4.138679292231E+00  4.077334797230E+00  4.013194439346E+00
  3.946205167801E+00  3.876322944106E+00  3.803514013186E+00  3.727756195862E+00
  3.649040181596E+00  3.567370796468E+00  3.482768217424E+00  3.395269099825E+00
  3.304927581600E+00  3.211816123833E+00  3.116026144754E+00  3.067160561478E+00
  3.017668401939E+00  2.967566546548E+00  2.916873076486E+00  2.865607256798E+00
  2.813789513101E+00  2.761441401560E+00  2.708585571869E+00  2.655245722958E+00
  2.601446551220E+00  2.547213691046E+00  2.492573647550E+00  2.437553721363E+00
  2.382181925475E+00  2.326486894144E+00  2.270497783961E+00  2.214244167240E+00
  2.157755917979E+00  2.101063090732E+00  2.044195792820E+00  1.987184050410E+00
  1.930057669103E+00  1.872846089773E+00  1.815578240521E+00  1.758282385738E+00
  1.700985973370E+00  1.643715481628E+00  1.586496266493E+00  1.529352411509E+00
  1.472306581476E+00  1.415379881746E+00  1.358591725003E+00  1.301959707440E+00
  1.245499496390E+00  1.189224731530E+00  1.133146941842E+00  1.077275480552E+00
  1.021617480301E+00  9.661778307747E-01  9.109591809997E-01  8.559619684082E-01
  8.011844766881E-01  7.466229242547E-01  6.922715849809E-01  6.381229425647E-01
  5.841678795981E-01  5.303959020341E-01  4.767953993211E-01  4.233539399848E-01
  3.700586018921E-01  3.168963358236E-01  2.638543603223E-01  2.109205850691E-01
  1.580840592802E-01  1.053354408204E-01  5.266748090828E-02  7.551844246445E-05
 -5.244202285442E-02 -1.048831421057E-01 -1.572417821816E-01 -2.095073729782E-01
 -2.616644068745E-01 -3.136920567082E-01 -3.655638470260E-01 -4.172473896165E-01
 -4.687041943954E-01 -5.198895665648E-01 -5.707526005679E-01 -6.212362806948E-01
 -6.712776972334E-01 -7.208083857780E-01 -7.697547956952E-01 -8.180388917822E-01
 -8.655788908349E-01 -9.122901321661E-01 -9.580860780872E-01 -1.002879437006E+00
 -1.046583398126E+00 -1.089112962797E+00 -1.130386353404E+00 -1.170326476403E+00
 -1.208862411721E+00 -1.245930896436E+00 -1.281477766504E+00 -1.315459316428E+00
 -1.347843533454E+00 -1.378611160156E+00 -1.407756537510E+00 -1.435288179871E+00
 -1.461229033949E+00 -1.485616376214E+00 -1.508501307276E+00 -1.529947808056E+00