<?xml version="1.0" encoding="UTF-8" ?>
<psml version="1.1" energy_unit="hartree" length_unit="bohr"
 uuid="4db768d0-23d2-11e8-4e01-0420fffc6cc6"
 xmlns="http://esl.cecam.org/PSML/ns/1.1">
<provenance creator="ONCVPSP-3.3.0+psml-3.3.0-73 (scalar-relativistic)"
 date="2018-03-09">
<annotation action="semilocal-pseudopotential-generation"
 action-cont="projectors-generation" />
<input-file name="oncvpsp-input">
<![CDATA[# atsym z nc nv iexc psfile
Ar 18 3 2 -001012 upf
# n l f
1 0 2.0
2 0 2.0
2 1 6.0
3 0 2.0
3 1 6.0
# lmax
2
# l rc ep ncon nbas qcut
0 1.55 0.0 4 8 8.2
1 1.55 0.0 4 8 8.2
2 1.55 0.1 4 8 8.2
# lloc lpopt rc5 dvloc0
4 5 1.5 0.0
# l nproj debl
0 2 1.5
1 2 1.5
2 2 1.0
# icmod fcfact rcfact
3 7.0 1.25
# epsh1 epsh2 depsh
-12.0 12.0 0.02
# rlmax drl
4.0 0.01
 0
]]>
</input-file>
</provenance>
<pseudo-atom-spec atomic-label="Ar" atomic-number="18" z-pseudo="8"
 flavor="Hamann&apos;s oncvpsp" relativity="scalar" spin-dft="no"
 core-corrections="yes">
<annotation pseudo-energy="-21.1940230463" />
<exchange-correlation>
<annotation oncvpsp-xc-code="-1012" oncvpsp-xc-type="libxc-interface" />
<libxc-info number-of-functionals="2">
<functional name="Slater exchange (LDA)" type="exchange" id="1" />
<functional name="Perdew &amp; Wang (LDA)" type="correlation" id="12" />
</libxc-info>
</exchange-correlation>
<valence-configuration total-valence-charge="8">
<shell n="3" l="s" occupation="2" />
<shell n="3" l="p" occupation="6" />
</valence-configuration>
</pseudo-atom-spec>
<grid npts="457">
<annotation type="sampled from oncvpsp log grid"
 recipe="r(i:1..N) = r1*exp(a*(i-1)) + r=0; resampled"
 recipe-cont="r1: scale; a: step" scale="0.277777777778E-04"
 step="0.119285708653E-01" delta="0.500000000000E-02" rmax="44.1337637881" />
<grid-data>
  0.000000000000E+00  5.039656670363E-03  1.006631870100E-02  1.510108323112E-02
  2.010668162892E-02  2.522145511185E-02  3.052518740768E-02  3.564552384771E-02
  4.113117834404E-02  4.634216045545E-02  5.159420074619E-02  5.676034011613E-02
  6.244376622769E-02  6.788169478566E-02  7.291816847781E-02  7.832832269358E-02
  8.413988261178E-02  8.931089968118E-02  9.479971393192E-02  1.006258563474E-01
  1.068100582341E-01  1.120299654056E-01  1.175049743093E-01  1.232475520049E-01
  1.292707748288E-01  1.355883581702E-01  1.422146877022E-01  1.473960989515E-01
  1.527662883290E-01  1.583321337255E-01  1.641007636193E-01  1.700795662056E-01
  1.762761988591E-01  1.826985979412E-01  1.893549889646E-01  1.962538971280E-01
  2.034041582349E-01  2.108149300101E-01  2.159048456802E-01  2.211176522743E-01
  2.264563168709E-01  2.319238781854E-01  2.375234483003E-01  2.432582144361E-01
  2.491314407654E-01  2.551464702712E-01  2.613067266495E-01  2.676157162577E-01
  2.740770301110E-01  2.806943459260E-01  2.874714302141E-01  2.944121404252E-01
  3.015204271436E-01  3.088003363365E-01  3.162560116570E-01  3.238916968025E-01
  3.317117379301E-01  3.397205861307E-01  3.479227999622E-01  3.563230480445E-01
  3.649261117165E-01  3.737368877578E-01  3.827603911758E-01  3.920017580603E-01
  4.014662485069E-01  4.111592496109E-01  4.210862785335E-01  4.261393138759E-01
  4.312529856424E-01  4.364280214701E-01  4.416651577278E-01  4.469651396205E-01
  4.523287212960E-01  4.577566659515E-01  4.632497459429E-01  4.688087428942E-01
  4.744344478090E-01  4.801276611827E-01  4.858891931169E-01  4.917198634343E-01
  4.976205017955E-01  5.035919478170E-01  5.096350511908E-01  5.157506718051E-01
  5.219396798668E-01  5.282029560252E-01  5.345413914975E-01  5.409558881955E-01
  5.474473588538E-01  5.540167271600E-01  5.606649278860E-01  5.673929070206E-01
  5.742016219048E-01  5.810920413677E-01  5.880651458641E-01  5.951219276145E-01
  6.022633907459E-01  6.094905514348E-01  6.168044380520E-01  6.242060913086E-01
  6.316965644044E-01  6.392769231772E-01  6.469482462553E-01  6.547116252104E-01
  6.625681647129E-01  6.705189826895E-01  6.785652104817E-01  6.867079930075E-01
  6.949484889236E-01  7.032878707907E-01  7.117273252402E-01  7.202680531431E-01
  7.289112697808E-01  7.376582050182E-01  7.465101034784E-01  7.554682247201E-01
  7.645338434168E-01  7.737082495378E-01  7.829927485322E-01  7.923886615146E-01
  8.018973254528E-01  8.115200933582E-01  8.212583344785E-01  8.311134344923E-01
  8.410867957062E-01  8.511798372546E-01  8.613939953017E-01  8.717307232453E-01
  8.821914919243E-01  8.927777898273E-01  9.034911233053E-01  9.143330167849E-01
  9.253050129864E-01  9.364086731422E-01  9.476455772199E-01  9.590173241465E-01
  9.705255320363E-01  9.821718384207E-01  9.939579004818E-01  1.005885395288E+00
  1.017956020031E+00  1.030171492271E+00  1.042533550179E+00  1.055043952781E+00
  1.067704480214E+00  1.080516933977E+00  1.093483137184E+00  1.106604934831E+00
  1.119884194049E+00  1.133322804377E+00  1.146922678030E+00  1.160685750166E+00
  1.174613979168E+00  1.188709346918E+00  1.202973859081E+00  1.217409545390E+00
  1.232018459935E+00  1.246802681454E+00  1.261764313631E+00  1.276905485395E+00
  1.292228351220E+00  1.307735091434E+00  1.323427912532E+00  1.339309047482E+00
  1.355380756052E+00  1.371645325124E+00  1.388105069026E+00  1.404762329854E+00
  1.421619477812E+00  1.438678911546E+00  1.455943058485E+00  1.473414375187E+00
  1.491095347689E+00  1.508988491861E+00  1.527096353763E+00  1.545421510009E+00
  1.563966568129E+00  1.582734166946E+00  1.601726976950E+00  1.620947700673E+00
  1.640399073081E+00  1.660083861958E+00  1.680004868302E+00  1.700164926721E+00
  1.720566905842E+00  1.741213708712E+00  1.762108273216E+00  1.783253572495E+00
  1.804652615365E+00  1.826308446749E+00  1.848224148110E+00  1.870402837888E+00
  1.892847671942E+00  1.915561844006E+00  1.938548586134E+00  1.961811169167E+00
  1.985352903197E+00  2.009177138036E+00  2.033287263692E+00  2.057686710856E+00
  2.082378951387E+00  2.107367498803E+00  2.132655908789E+00  2.158247779694E+00
  2.184146753051E+00  2.210356514087E+00  2.236880792256E+00  2.263723361763E+00
  2.290888042105E+00  2.318378698610E+00  2.346199242993E+00  2.374353633909E+00
  2.402845877516E+00  2.431680028046E+00  2.460860188383E+00  2.490390510643E+00
  2.520275196771E+00  2.550518499132E+00  2.581124721122E+00  2.612098217775E+00
  2.643443396389E+00  2.675164717145E+00  2.707266693751E+00  2.739753894076E+00
  2.772630940805E+00  2.805902512095E+00  2.839573342240E+00  2.873648222347E+00
  2.908132001015E+00  2.943029585027E+00  2.978345940047E+00  3.014086091328E+00
  3.050255124424E+00  3.086858185917E+00  3.123900484148E+00  3.161387289958E+00
  3.199323937437E+00  3.237715824687E+00  3.276568414583E+00  3.315887235558E+00
  3.355677882384E+00  3.395946016973E+00  3.436697369177E+00  3.477937737607E+00
  3.519672990458E+00  3.561909066344E+00  3.604651975140E+00  3.647907798841E+00
  3.691682692428E+00  3.735982884737E+00  3.780814679353E+00  3.826184455506E+00
  3.872098668972E+00  3.918563852999E+00  3.965586619235E+00  4.013173658666E+00
  4.061331742570E+00  4.110067723481E+00  4.159388536163E+00  4.209301198597E+00
  4.259812812980E+00  4.310930566736E+00  4.362661733537E+00  4.415013674339E+00
  4.467993838431E+00  4.521609764492E+00  4.575869081666E+00  4.630779510646E+00
  4.686348864774E+00  4.742585051151E+00  4.799496071765E+00  4.857090024626E+00
  4.915375104922E+00  4.974359606181E+00  5.034051921455E+00  5.094460544512E+00
  5.155594071047E+00  5.217461199899E+00  5.280070734298E+00  5.343431583109E+00
  5.407552762107E+00  5.472443395252E+00  5.538112715995E+00  5.604570068587E+00
  5.671824909410E+00  5.739886808323E+00  5.808765450023E+00  5.878470635423E+00
  5.949012283048E+00  6.020400430445E+00  6.092645235610E+00  6.165756978437E+00
  6.239746062179E+00  6.314623014925E+00  6.390398491104E+00  6.467083272997E+00
  6.544688272273E+00  6.623224531540E+00  6.702703225919E+00  6.783135664630E+00
  6.864533292606E+00  6.946907692117E+00  7.030270584422E+00  7.114633831435E+00
  7.200009437412E+00  7.286409550661E+00  7.373846465269E+00  7.462332622853E+00
  7.551880614327E+00  7.642503181699E+00  7.734213219879E+00  7.827023778518E+00
  7.920948063860E+00  8.015999440626E+00  8.112191433914E+00  8.209537731121E+00
  8.308052183894E+00  8.407748810101E+00  8.508641795822E+00  8.610745497372E+00
  8.714074443340E+00  8.818643336661E+00  8.924467056700E+00  9.031560661381E+00
  9.139939389317E+00  9.249618661989E+00  9.360614085933E+00  9.472941454964E+00
  9.586616752424E+00  9.701656153453E+00  9.818076027294E+00  9.935892939622E+00
  1.005512365490E+01  1.017578513876E+01  1.029789456042E+01  1.042146929515E+01
  1.054652692669E+01  1.067308524981E+01  1.080116227281E+01  1.093077622008E+01
  1.106194553472E+01  1.119468888114E+01  1.132902514771E+01  1.146497344948E+01
  1.160255313088E+01  1.174178376845E+01  1.188268517367E+01  1.202527739575E+01
  1.216958072450E+01  1.231561569320E+01  1.246340308151E+01  1.261296391849E+01
  1.276431948551E+01  1.291749131934E+01  1.307250121517E+01  1.322937122976E+01
  1.338812368451E+01  1.354878116873E+01  1.371136654275E+01  1.387590294126E+01
  1.404241377656E+01  1.421092274188E+01  1.438145381478E+01  1.455403126056E+01
  1.472867963568E+01  1.490542379131E+01  1.508428887681E+01  1.526530034333E+01
  1.544848394745E+01  1.563386575482E+01  1.582147214388E+01  1.601132980960E+01
  1.620346576732E+01  1.639790735653E+01  1.659468224481E+01  1.679381843174E+01
  1.699534425292E+01  1.719928838396E+01  1.740567984457E+01  1.761454800270E+01
  1.782592257873E+01  1.803983364968E+01  1.825631165347E+01  1.847538739332E+01
  1.869709204204E+01  1.892145714654E+01  1.914851463230E+01  1.937829680789E+01
  1.961083636958E+01  1.984616640602E+01  2.008432040289E+01  2.032533224772E+01
  2.056923623470E+01  2.081606706951E+01  2.106585987435E+01  2.131865019284E+01
  2.157447399515E+01  2.183336768309E+01  2.209536809529E+01  2.236051251243E+01
  2.262883866258E+01  2.290038472654E+01  2.317518934325E+01  2.345329161537E+01
  2.373473111476E+01  2.401954788813E+01  2.430778246279E+01  2.459947585235E+01
  2.489466956257E+01  2.519340559732E+01  2.549572646449E+01  2.580167518207E+01
  2.611129528425E+01  2.642463082766E+01  2.674172639759E+01  2.706262711436E+01
  2.738737863974E+01  2.771602718341E+01  2.804861950962E+01  2.838520294373E+01
  2.872582537906E+01  2.907053528360E+01  2.941938170701E+01  2.977241428749E+01
  3.012968325894E+01  3.049123945805E+01  3.085713433155E+01  3.122741994352E+01
  3.160214898285E+01  3.198137477064E+01  3.236515126789E+01  3.275353308310E+01
  3.314657548010E+01  3.354433438586E+01  3.394686639849E+01  3.435422879527E+01
  3.476647954082E+01  3.518367729531E+01  3.560588142285E+01  3.603315199992E+01
  3.646554982392E+01  3.690313642181E+01  3.734597405887E+01  3.779412574758E+01
  3.824765525655E+01  3.870662711963E+01  3.917110664506E+01  3.964115992480E+01
  4.011685384390E+01  4.059825609003E+01  4.108543516311E+01  4.157846038507E+01
  4.207740190969E+01  4.258233073260E+01  4.309331870139E+01  4.361043852581E+01
  4.413376378812E+01
</grid-data>
</grid>
<valence-charge total-charge="8" is-unscreening-charge="yes"
 rescaled-to-z-pseudo="no">
<radfunc>
<data npts="457">
  5.140088011841E-02  5.169118528913E-02  5.255914295069E-02  5.400765516263E-02
  5.602254136132E-02  5.867359982078E-02  6.205513506993E-02  6.593113350413E-02
  7.075063972674E-02  7.596838565771E-02  8.185839221803E-02  8.827089158492E-02
  9.603530114602E-02  1.041613942806E-01  1.122964440753E-01  1.216882701372E-01
  1.325317279607E-01  1.428383061910E-01  1.544575114107E-01  1.675572105832E-01
  1.823268415065E-01  1.954876578934E-01  2.099754600234E-01  2.259245432543E-01
  2.434827862518E-01  2.628129881372E-01  2.840943187132E-01  3.014535953212E-01
  3.201111656173E-01  3.401639689590E-01  3.617160100176E-01  3.848788144100E-01
  4.097718971149E-01  4.365232392788E-01  4.652697674885E-01  4.961578277022E-01
  5.293436437341E-01  5.649937473879E-01  5.902166002297E-01  6.166684519673E-01
  6.444067329019E-01  6.734911071291E-01  7.039834844827E-01  7.359480186921E-01
  7.694510892065E-01  8.045612638146E-01  8.413492388303E-01  8.798877532260E-01
  9.202514726775E-01  9.625168390332E-01  1.006761880246E+00  1.053065975300E+00
  1.101509568137E+00  1.152173824059E+00  1.205140221522E+00  1.260490071690E+00
  1.318303957618E+00  1.378661084407E+00  1.441638531253E+00  1.507310395971E+00
  1.575746822299E+00  1.647012900239E+00  1.721167429750E+00  1.798261538492E+00
  1.878337144936E+00  1.961425259167E+00  2.047544115181E+00  2.091741777443E+00
  2.136697130377E+00  2.182407922658E+00  2.228870690549E+00  2.276080679285E+00
  2.324031761891E+00  2.372716355536E+00  2.422125335520E+00  2.472247947044E+00
  2.523071714919E+00  2.574582351413E+00  2.626763662449E+00  2.679597452422E+00
  2.733063427915E+00  2.787139100645E+00  2.841799690009E+00  2.897018025633E+00
  2.952764450374E+00  3.009006724277E+00  3.065709930022E+00  3.122836380451E+00
  3.180345528819E+00  3.238193882457E+00  3.296334920575E+00  3.354719017020E+00
  3.413293368797E+00  3.472001931278E+00  3.530785361014E+00  3.589580967143E+00
  3.648322672433E+00  3.706940985017E+00  3.765362981941E+00  3.823512305652E+00
  3.881309174600E+00  3.938670409129E+00  3.995509473856E+00  4.051736537731E+00
  4.107258552955E+00  4.161979353936E+00  4.215799777392E+00  4.268617804706E+00
  4.320328727538E+00  4.370825337640E+00  4.419998141730E+00  4.467735602142E+00
  4.513924403869E+00  4.558449748438E+00  4.601195674898E+00  4.642045408004E+00
  4.680881733471E+00  4.717587399944E+00  4.752045547059E+00  4.784140158730E+00
  4.813756540482E+00  4.840781819368E+00  4.865105464678E+00  4.886619827338E+00
  4.905220695539E+00  4.920807863836E+00  4.933285712582E+00  4.942563794258E+00
  4.948557422917E+00  4.951188262682E+00  4.950384910903E+00  4.946083471372E+00
  4.938228112718E+00  4.926771606943E+00  4.911675842886E+00  4.892912309331E+00
  4.870462542398E+00  4.844318531888E+00  4.814483081331E+00  4.780970116603E+00
  4.743804938232E+00  4.703024412750E+00  4.658677098829E+00  4.610823304359E+00
  4.559535071106E+00  4.504896084149E+00  4.447001503925E+00  4.385957719359E+00
  4.321882021293E+00  4.254902196172E+00  4.185156040760E+00  4.112790799430E+00
  4.037962526427E+00  3.960835376312E+00  3.881580826604E+00  3.800376837432E+00
  3.717406953772E+00  3.632859356550E+00  3.546925869591E+00  3.459800929971E+00
  3.371680529914E+00  3.282761138832E+00  3.193238614504E+00  3.103307112750E+00
  3.013158005130E+00  2.922978814416E+00  2.832952177591E+00  2.743254846115E+00
  2.654056733100E+00  2.565520016746E+00  2.477798309163E+00  2.391035899217E+00
  2.305367077589E+00  2.220915551615E+00  2.137793956828E+00  2.056103471359E+00
  1.975933538648E+00  1.897361984273E+00  1.820456430933E+00  1.745276529495E+00
  1.671874573107E+00  1.600295324941E+00  1.530576457144E+00  1.462748788896E+00
  1.396836572109E+00  1.332857784268E+00  1.270824429709E+00  1.210742847337E+00
  1.152614022738E+00  1.096433903124E+00  1.042193713127E+00  9.898802699774E-01
  9.394762965437E-01  8.909607308512E-01  8.443090308252E-01  7.994934731086E-01
  7.564834449229E-01  7.152457280559E-01  6.757447741941E-01  6.379429707762E-01
  6.018008970252E-01  5.672775694086E-01  5.343306762564E-01  5.029168012036E-01
  4.729916352306E-01  4.445101771597E-01  4.174269225370E-01  3.916960408980E-01
  3.672715414796E-01  3.441074274965E-01  3.221578391535E-01  3.013771856097E-01
  2.817202661540E-01  2.631423808849E-01  2.455994312194E-01  2.290480105840E-01
  2.134454856585E-01  1.987500685664E-01  1.849208804147E-01  1.719180065994E-01
  1.597025442975E-01  1.482366425730E-01  1.374835355212E-01  1.274075688777E-01
  1.179742205131E-01  1.091501152274E-01  1.009030342521E-01  9.320191985683E-02
  8.601687544899E-02  7.931916153929E-02  7.308118793700E-02  6.727650252235E-02
  6.187977693024E-02  5.686678946459E-02  5.221440554712E-02  4.790055598934E-02
  4.390421336087E-02  4.020536671181E-02  3.678499489160E-02  3.362503869151E-02
  3.070837202309E-02  2.801877233036E-02  2.554089041912E-02  2.326021987319E-02
  2.116306621377E-02  1.923651594560E-02  1.746840562074E-02  1.584729103948E-02
  1.436241669607E-02  1.300368556673E-02  1.176162932653E-02  1.062737907279E-02
  9.592636622780E-03  8.649646445538E-03  7.791168279054E-03  7.010450476841E-03
  6.301204120669E-03  5.657577929746E-03  5.074133990503E-03  4.545824325508E-03
  4.067968314812E-03  3.636230978268E-03  3.246602122954E-03  2.895376355862E-03
  2.579133958347E-03  2.294722615588E-03  2.039239991323E-03  1.810017135500E-03
  1.604602710140E-03  1.420748016630E-03  1.256392805867E-03  1.109651851121E-03
  9.788022621395E-04  8.622715179251E-04  7.586261946789E-04  6.665613647046E-04
  5.848906414923E-04  5.125368458228E-04  4.485232674809E-04  3.919654970612E-04
  3.420638023633E-04  2.980960240020E-04  2.594109650884E-04  2.254222501650E-04
  1.956026289790E-04  1.694787011652E-04  1.466260384519E-04  1.266646816081E-04
  1.092549900016E-04  9.409382233376E-05  8.091102784271E-05  6.946622802623E-05
  5.954586971248E-05  5.096053110307E-05  4.354246321760E-05  3.714334998074E-05
  3.163227100471E-05  2.689385192910E-05  2.282658798197E-05  1.934132721673E-05
  1.635990065680E-05  1.381388734019E-05  1.164350299707E-05  9.796601813250E-06
  8.227781428328E-06  6.897581989073E-06  5.771770723346E-06  4.820704118196E-06
  4.018760375691E-06  3.343835381827E-06  2.776895956827E-06  2.301584659451E-06
  1.903870893565E-06  1.571743512594E-06  1.294940536983E-06  1.064711991990E-06
  8.736122389095E-07  7.153185127641E-07  5.844726947396E-07  4.765436389978E-07
  3.877076421329E-07  3.147448904572E-07  2.549499466626E-07  2.060545443287E-07
  1.661611473823E-07  1.336859030852E-07  1.073097725762E-07  8.593676351683E-08
  6.865831606438E-08  5.472300727447E-08  4.351084111729E-08  3.451148254397E-08
  2.730587538297E-08  2.155075615096E-08  1.696563995007E-08  1.332191126811E-08
  1.043370241915E-08  8.150286233337E-09  6.349748046936E-09  4.933735631734E-09
  3.823114964870E-09  2.954385157536E-09  2.276727874945E-09  1.749585589152E-09
  1.340679372306E-09  1.024390985779E-09  7.804460424650E-10  5.928452761765E-10
  4.489996759654E-10  3.390326404661E-10  2.552185602670E-10  1.915325053274E-10
  1.432901203641E-10  1.068605369930E-10  7.943820442013E-11  5.886211359537E-11
  4.347302338368E-11  3.200106067819E-11  2.347751889619E-11  1.716587173380E-11
  1.250799465989E-11  9.082382097498E-12  6.571794589966E-12  4.738293598528E-12
  3.404043839637E-12  2.436602555767E-12  1.737687066354E-12  1.234629007461E-12
  8.738962819844E-13  6.162004985742E-13  4.328156187438E-13  3.028184058081E-13
  2.110277498229E-13  1.464718137493E-13  1.012522594768E-13  6.970601907332E-14
  4.778913701916E-14  3.262568452986E-14  2.217887564926E-14  1.501227099374E-14
  1.011714083326E-14  6.788137474663E-15  4.534209595368E-15  3.014997921778E-15
  1.995642903564E-15  1.314814502175E-15  8.621976661047E-16  5.627091930299E-16
  3.654846958681E-16  2.362293198945E-16  0.000000000000E+00  0.000000000000E+00
  0.000000000000E+00  0.000000000000E+00  0.000000000000E+00  0.000000000000E+00
  0.000000000000E+00  0.000000000000E+00  0.000000000000E+00  0.000000000000E+00
  0.000000000000E+00  0.000000000000E+00  0.000000000000E+00  0.000000000000E+00
  0.000000000000E+00  0.000000000000E+00  0.000000000000E+00  0.000000000000E+00
  0.000000000000E+00  0.000000000000E+00  0.000000000000E+00  0.000000000000E+00
  0.000000000000E+00  0.000000000000E+00  0.000000000000E+00  0.000000000000E+00
  0.000000000000E+00  0.000000000000E+00  0.000000000000E+00  0.000000000000E+00
  0.000000000000E+00  0.000000000000E+00  0.000000000000E+00  0.000000000000E+00
  0.000000000000E+00  0.000000000000E+00  0.000000000000E+00  0.000000000000E+00
  0.000000000000E+00  0.000000000000E+00  0.000000000000E+00  0.000000000000E+00
  0.000000000000E+00  0.000000000000E+00  0.000000000000E+00  0.000000000000E+00
  0.000000000000E+00  0.000000000000E+00  0.000000000000E+00  0.000000000000E+00
  0.000000000000E+00  0.000000000000E+00  0.000000000000E+00  0.000000000000E+00
  0.000000000000E+00  0.000000000000E+00  0.000000000000E+00  0.000000000000E+00
  0.000000000000E+00  0.000000000000E+00  0.000000000000E+00  0.000000000000E+00
  0.000000000000E+00  0.000000000000E+00  0.000000000000E+00  0.000000000000E+00
  0.000000000000E+00
</data>
</radfunc>
</valence-charge>
<pseudocore-charge matching-radius="0.746510103478"
 number-of-continuous-derivatives="4">
<annotation model-charge-form="Teter function with specified parameters" />
<radfunc>
<data npts="256">
  3.251321636373E+01  3.251022019495E+01  3.250126411286E+01  3.248632387077E+01
  3.246555508971E+01  3.243825213161E+01  3.240346437064E+01  3.236364244718E+01
  3.231420512385E+01  3.226078006306E+01  3.220059266124E+01  3.213521131779E+01
  3.205624742559E+01  3.197384001487E+01  3.189158068602E+01  3.179690834658E+01
  3.168799346726E+01  3.158485566350E+01  3.146902773488E+01  3.133900186408E+01
  3.119310546786E+01  3.106372378506E+01  3.092196754200E+01  3.076671690745E+01
  3.059676407326E+01  3.041080922533E+01  3.020745702061E+01  3.004263106692E+01
  2.986651388602E+01  2.967840649784E+01  2.947757811509E+01  2.926326656888E+01
  2.903467912614E+01  2.879099376838E+01  2.853136100895E+01  2.825490633489E+01
  2.796073336783E+01  2.764792784721E+01  2.742858188679E+01  2.720026609835E+01
  2.696270325211E+01  2.671561665258E+01  2.645873128224E+01  2.619177507248E+01
  2.591448031008E+01  2.562658518709E+01  2.532783550205E+01  2.501798651988E+01
  2.469680499777E+01  2.436407138310E+01  2.401958218916E+01  2.366315255290E+01
  2.329461897769E+01  2.291384226241E+01  2.252071061595E+01  2.211514295402E+01
  2.169709237186E+01  2.126654978371E+01  2.082354771541E+01  2.036816423265E+01
  1.990052698206E+01  1.942081731721E+01  1.892927447513E+01  1.842619976253E+01
  1.791196070345E+01  1.738699509244E+01  1.685181488908E+01  1.658057548956E+01
  1.630700988076E+01  1.603120449649E+01  1.575325103214E+01  1.547324652575E+01
  1.519129343036E+01  1.490749967683E+01  1.462197872630E+01  1.433484961114E+01
  1.404623696377E+01  1.375627103204E+01  1.346508768044E+01  1.317282837598E+01
  1.287964015774E+01  1.258567558911E+01  1.229109269157E+01  1.199605485914E+01
  1.170073075227E+01  1.140529417036E+01  1.110992390172E+01  1.081480355020E+01
  1.052012133746E+01  1.022606988000E+01  9.932845940272E+00  9.640650150952E+00
  9.349686711925E+00  9.060163059271E+00  8.772289505895E+00  8.486278853455E+00
  8.202345975413E+00  7.920707371169E+00  7.641580691426E+00  7.365184235092E+00
  7.091736418241E+00  6.821455215847E+00  6.554557577246E+00  6.291258816518E+00
  6.031771979221E+00  5.776307187186E+00  5.525070963370E+00  5.278265539014E+00
  5.036088145693E+00  4.798730295111E+00  4.566377049826E+00  4.339206288368E+00
  4.117387968551E+00  3.901083393052E+00  3.690444481636E+00  3.485613054685E+00
  3.286720132938E+00  3.093885258613E+00  2.907215843261E+00  2.726806547920E+00
  2.552738701250E+00  2.385079761456E+00  2.223882827835E+00  2.069186207808E+00
  1.921013045206E+00  1.779371015486E+00  1.644252093324E+00  1.515632397783E+00
  1.393472119897E+00  1.277715537078E+00  1.168291118227E+00  1.065111722844E+00
  9.680748967337E-01  8.770632661047E-01  7.919450310471E-01  7.125745583851E-01
  6.387930729260E-01  5.704294450289E-01  5.073010712960E-01  4.492148440110E-01
  3.959682037448E-01  3.473502683341E-01  3.031430302294E-01  2.631226130195E-01
  2.270605768088E-01  1.947252610509E-01  1.658831524761E-01  1.403002648953E-01
  1.177435169589E-01  9.798209341292E-02  8.078877505259E-02  6.594122244697E-02
  5.322319861813E-02  4.242571621873E-02  3.334809537706E-02  2.579891927456E-02
  1.959687569008E-02  1.457147418277E-02  1.056363028021E-02  7.426109970542E-03
  5.023829941931E-03  3.234011333264E-03  1.946187216122E-03  1.062066569880E-03
  4.952600835035E-04  1.708756583546E-04  2.499393062119E-05  4.036412381039E-06
  6.404089864893E-05  1.698605379012E-04  2.943043535592E-04  4.172379786865E-04
  5.246638801146E-04  6.078003677927E-04  6.621781911619E-04  6.867725140125E-04
  6.831865477591E-04  6.549011444662E-04  6.066022584966E-04  5.435954510658E-04
  4.713136239440E-04  3.949210301623E-04  3.190134349203E-04  2.474112095897E-04
  1.830392578458E-04  1.278851132969E-04  8.302441996280E-05  4.870140156939E-05
  2.445091178066E-05  9.248276931758E-06  1.673406398915E-06  7.653096819961E-08
  2.734380208778E-06  7.987537466672E-06  1.435199878751E-05  2.060047046643E-05
  2.581151503314E-05  2.938713824747E-05  3.104164651000E-05  3.076645774485E-05
  2.877690881237E-05  2.544789416383E-05  2.124536161451E-05  1.666029589896E-05
  1.215089951719E-05  8.097336105725E-06  4.771771477839E-06  2.324691874517E-06
  7.867669051452E-07  8.401812066125E-08  6.289217269324E-08  5.211218181857E-07
  1.240042056908E-06  2.014311238732E-06  2.675711735281E-06  3.108766135625E-06
  3.257159905920E-06  3.121246593074E-06  2.748063195993E-06  2.216158194542E-06
  1.618029542758E-06  1.043035349070E-06  5.632879117174E-07  2.243441304131E-07
  4.158362775528E-08  0.000000000000E+00  0.000000000000E+00  0.000000000000E+00
  0.000000000000E+00  0.000000000000E+00  0.000000000000E+00  0.000000000000E+00
  0.000000000000E+00  0.000000000000E+00  0.000000000000E+00  0.000000000000E+00
  0.000000000000E+00  0.000000000000E+00  0.000000000000E+00  0.000000000000E+00
  0.000000000000E+00  0.000000000000E+00  0.000000000000E+00  0.000000000000E+00
  0.000000000000E+00  0.000000000000E+00  0.000000000000E+00  0.000000000000E+00
  0.000000000000E+00  0.000000000000E+00  0.000000000000E+00  0.000000000000E+00
  0.000000000000E+00  0.000000000000E+00  0.000000000000E+00  0.000000000000E+00
</data>
</radfunc>
</pseudocore-charge>
<semilocal-potentials set="scalar_relativistic">
<slps n="3" l="s" rc="1.56396656813" eref="-0.891653728995">
<radfunc>
<data npts="256">
  4.464884123324E+01  4.462179808490E+01  4.454109486686E+01  4.440691294756E+01
  4.422130127102E+01  4.397890345825E+01  4.367267480390E+01  4.332568526527E+01
  4.290010126795E+01  4.244652792589E+01  4.194326008512E+01  4.140560880692E+01
  4.076848864755E+01  4.011742963486E+01  3.948120426320E+01  3.876531580164E+01
  3.796259442675E+01  3.722225573036E+01  3.641287943211E+01  3.553093169186E+01
  3.457334302876E+01  3.375114025976E+01  3.287804710656E+01  3.195354460440E+01
  3.097754878602E+01  2.995046395210E+01  2.887323111744E+01  2.803328789145E+01
  2.716684288060E+01  2.627495869390E+01  2.535889839069E+01  2.442012517054E+01
  2.346029908047E+01  2.248127058993E+01  2.148507096184E+01  2.047389943506E+01
  1.945010732763E+01  1.841617926624E+01  1.772254116381E+01  1.702634263017E+01
  1.632839008719E+01  1.562950073834E+01  1.493049906076E+01  1.423221324363E+01
  1.353547160803E+01  1.284109904416E+01  1.214991350126E+01  1.146272256504E+01
  1.078032015611E+01  1.010348338105E+01  9.432969565325E+00  8.769513494735E+00
  8.113824888749E+00  7.466586125904E+00  6.828450237689E+00  6.200039183676E+00
  5.581942416877E+00  4.974715744495E+00  4.378880485618E+00  3.794922923801E+00
  3.223294049231E+00  2.664409582032E+00  2.118650265496E+00  1.586362415534E+00
  1.067858710444E+00  5.634192032408E-01  7.329253721243E-02 -1.663340272453E-01
 -4.023026558953E-01 -6.345904532063E-01 -8.631761967177E-01 -1.088040281099E+00
 -1.309164660588E+00 -1.526532789991E+00 -1.740129564442E+00 -1.949941258096E+00
 -2.155955461959E+00 -2.358161021044E+00 -2.556547971042E+00 -2.751107474721E+00
 -2.941831758230E+00 -3.128714047527E+00 -3.311748505136E+00 -3.490930167427E+00
 -3.666254882649E+00 -3.837719249926E+00 -4.005320559424E+00 -4.169056733948E+00
 -4.328926272166E+00 -4.484928193723E+00 -4.637061986476E+00 -4.785327556117E+00
 -4.929725178427E+00 -5.070255454436E+00 -5.206919268770E+00 -5.339717751454E+00
 -5.468652243466E+00 -5.593724266344E+00 -5.714935496135E+00 -5.832287742004E+00
 -5.945782929808E+00 -6.055423090951E+00 -6.161210356828E+00 -6.263146959174E+00
 -6.361235236623E+00 -6.455477647766E+00 -6.545876791012E+00 -6.632435431503E+00
 -6.715156535345E+00 -6.794043311383E+00 -6.869099260709E+00 -6.940328234078E+00
 -7.007734497349E+00 -7.071322805042E+00 -7.131098482035E+00 -7.187067513399E+00
 -7.239236642292E+00 -7.287613475775E+00 -7.332206598377E+00 -7.373025693141E+00
 -7.410081669845E+00 -7.443386800022E+00 -7.472954858328E+00 -7.498801269787E+00
 -7.520943262329E+00 -7.539400024031E+00 -7.554192864393E+00 -7.565345378940E+00
 -7.572883616387E+00 -7.576836247562E+00 -7.577234735231E+00 -7.574113503917E+00
 -7.567510108763E+00 -7.557465402405E+00 -7.544023698790E+00 -7.527232932786E+00
 -7.507144814342E+00 -7.483814975901E+00 -7.457303111657E+00 -7.427673107164E+00
 -7.394993157715E+00 -7.359335873826E+00 -7.320778372090E+00 -7.279402349626E+00
 -7.235294140312E+00 -7.188544751050E+00 -7.139249876352E+00 -7.087509889736E+00
 -7.033429810592E+00 -6.977119245564E+00 -6.918692303872E+00 -6.858267486589E+00
 -6.795967550533E+00 -6.731919348254E+00 -6.666253646519E+00 -6.599104926741E+00
 -6.530611171950E+00 -6.460913646111E+00 -6.390156672828E+00 -6.318487421676E+00
 -6.246055711483E+00 -6.173013840745E+00 -6.099516455908E+00 -6.025720468285E+00
 -5.951785029791E+00 -5.877871576262E+00 -5.804143944670E+00 -5.730768566813E+00
 -5.657914736944E+00 -5.585754943887E+00 -5.514465249540E+00 -5.444225684935E+00
 -5.375220622232E+00 -5.307639066207E+00 -5.241674791988E+00 -5.177526237349E+00
 -5.115396038228E+00 -5.054739603294E+00 -4.994777841128E+00 -4.935532147834E+00
 -4.876993208207E+00 -4.819151850039E+00 -4.761999049608E+00 -4.705525954534E+00
 -4.649723898572E+00 -4.594584411766E+00 -4.540099225381E+00 -4.486260271624E+00
 -4.433059678391E+00 -4.380489759512E+00 -4.328543001184E+00 -4.277212045480E+00
 -4.226489671931E+00 -4.176368778307E+00 -4.126842361717E+00 -4.077903501112E+00