<?xml version="1.0" encoding="UTF-8" ?>
<psml version="1.1" energy_unit="hartree" length_unit="bohr"
 uuid="ae7a8710-23d2-11e8-66f7-3f587fd722e6"
 xmlns="http://esl.cecam.org/PSML/ns/1.1">
<provenance creator="ONCVPSP-3.3.0+psml-3.3.0-73 (scalar-relativistic)"
 date="2018-03-09">
<annotation action="semilocal-pseudopotential-generation"
 action-cont="projectors-generation" />
<input-file name="oncvpsp-input">
<![CDATA[# atsym z nc nv iexc psfile
As 33 5 3 -001012 upf
# n l f
1 0 2.0
2 0 2.0
2 1 6.0
3 0 2.0
3 1 6.0
3 2 10.0
4 0 2.0
4 1 3.0
# lmax
2
# l rc ep ncon nbas qcut
0 1.80 0.0 4 7 4.8
1 1.6 0.0 4 8 6.0
2 1.8 0.0 4 7 9.0
# lloc lpopt rc5 dvloc0
4 5 1.6 0.0
# l nproj debl
0 2 4.0
1 2 4.8
2 2 2.5
# icmod fcfact rcfact
3 5.0 1.4
# epsh1 epsh2 depsh
-12.0 12.0 0.02
# rlmax drl
6.0 0.01
 0
]]>
</input-file>
</provenance>
<pseudo-atom-spec atomic-label="As" atomic-number="33" z-pseudo="15"
 flavor="Hamann&apos;s oncvpsp" relativity="scalar" spin-dft="no"
 core-corrections="yes">
<annotation pseudo-energy="-95.9936514130" />
<exchange-correlation>
<annotation oncvpsp-xc-code="-1012" oncvpsp-xc-type="libxc-interface" />
<libxc-info number-of-functionals="2">
<functional name="Slater exchange (LDA)" type="exchange" id="1" />
<functional name="Perdew &amp; Wang (LDA)" type="correlation" id="12" />
</libxc-info>
</exchange-correlation>
<valence-configuration total-valence-charge="15">
<shell n="3" l="d" occupation="10" />
<shell n="4" l="s" occupation="2" />
<shell n="4" l="p" occupation="3" />
</valence-configuration>
</pseudo-atom-spec>
<grid npts="457">
<annotation type="sampled from oncvpsp log grid"
 recipe="r(i:1..N) = r1*exp(a*(i-1)) + r=0; resampled"
 recipe-cont="r1: scale; a: step" scale="0.151515151515E-04"
 step="0.119285708653E-01" delta="0.500000000000E-02" rmax="44.2319075471" />
<grid-data>
  0.000000000000E+00  5.050863755537E-03  1.008870397413E-02  1.513466471039E-02
  2.015139445527E-02  2.527754206661E-02  3.059306869357E-02  3.572479163279E-02
  4.073383894775E-02  4.589448142461E-02  5.109578544660E-02  5.621201837620E-02
  6.184054090387E-02  6.722593745724E-02  7.308032240581E-02  7.850250761159E-02
  8.432699115759E-02  8.950950742873E-02  9.501052759205E-02  1.008496260636E-01
  1.070475802516E-01  1.122790953457E-01  1.177662794620E-01  1.235216273841E-01
  1.295582445274E-01  1.358898767811E-01  1.425309418088E-01  1.477238753743E-01
  1.531060068687E-01  1.586842294782E-01  1.644656875329E-01  1.704577856578E-01
  1.766681982559E-01  1.831048793374E-01  1.897760727067E-01  1.966903225206E-01
  2.038564842315E-01  2.112837359290E-01  2.163849704493E-01  2.216093691758E-01
  2.269599057852E-01  2.324396257505E-01  2.380516480746E-01  2.437991670657E-01
  2.496854541554E-01  2.557138597605E-01  2.618878151905E-01  2.682108346005E-01
  2.746865169911E-01  2.813185482573E-01  2.881107032865E-01  2.950668481066E-01
  3.021909420873E-01  3.094870401931E-01  3.169592952915E-01  3.246119605170E-01
  3.324493916917E-01  3.404760498047E-01  3.486965035512E-01  3.571154319329E-01
  3.657376269215E-01  3.745679961859E-01  3.836115658858E-01  3.928734835326E-01
  4.023590209190E-01  4.120735771201E-01  4.220226815661E-01  4.270869537448E-01
  4.322119971898E-01  4.373985411561E-01  4.426473236499E-01  4.479590915337E-01
  4.533346006321E-01  4.587746158397E-01  4.642799112298E-01  4.698512701646E-01
  4.754894854065E-01  4.811953592314E-01  4.869697035422E-01  4.928133399847E-01
  4.987271000645E-01  5.047118252653E-01  5.107683671685E-01  5.168975875745E-01
  5.231003586254E-01  5.293775629289E-01  5.357300936840E-01  5.421588548082E-01
  5.486647610659E-01  5.552487381987E-01  5.619117230571E-01  5.686546637338E-01
  5.754785196986E-01  5.823842619350E-01  5.893728730782E-01  5.964453475551E-01
  6.036026917258E-01  6.108459240265E-01  6.181760751148E-01  6.255941880162E-01
  6.331013182724E-01  6.406985340917E-01  6.483869165008E-01  6.561675594988E-01
  6.640415702128E-01  6.720100690553E-01  6.800741898840E-01  6.882350801626E-01
  6.964939011246E-01  7.048518279380E-01  7.133100498733E-01  7.218697704718E-01
  7.305322077174E-01  7.392985942101E-01  7.481701773406E-01  7.571482194687E-01
  7.662339981023E-01  7.754288060795E-01  7.847339517525E-01  7.941507591735E-01
  8.036805682836E-01  8.133247351030E-01  8.230846319242E-01  8.329616475073E-01
  8.429571872774E-01  8.530726735247E-01  8.633095456070E-01  8.736692601543E-01
  8.841532912762E-01  8.947631307715E-01  9.055002883407E-01  9.163662918008E-01
  9.273626873024E-01  9.384910395501E-01  9.497529320247E-01  9.611499672090E-01
  9.726837668155E-01  9.843559720172E-01  9.961682436815E-01  1.008122262606E+00
  1.020219729757E+00  1.032462366514E+00  1.044851914912E+00  1.057390137891E+00
  1.070078819546E+00  1.082919765380E+00  1.095914802565E+00  1.109065780196E+00
  1.122374569558E+00  1.135843064393E+00  1.149473181165E+00  1.163266859339E+00
  1.177226061651E+00  1.191352774391E+00  1.205649007684E+00  1.220116795776E+00
  1.234758197326E+00  1.249575295693E+00  1.264570199242E+00  1.279745041633E+00
  1.295101982132E+00  1.310643205918E+00  1.326370924389E+00  1.342287375482E+00
  1.358394823987E+00  1.374695561875E+00  1.391191908618E+00  1.407886211521E+00
  1.424780846059E+00  1.441878216212E+00  1.459180754807E+00  1.476690923864E+00
  1.494411214951E+00  1.512344149530E+00  1.530492279324E+00  1.548858186676E+00
  1.567444484916E+00  1.586253818735E+00  1.605288864560E+00  1.624552330935E+00
  1.644046958906E+00  1.663775522413E+00  1.683740828682E+00  1.703945718626E+00
  1.724393067250E+00  1.745085784057E+00  1.766026813465E+00  1.787219135227E+00
  1.808665764850E+00  1.830369754028E+00  1.852334191076E+00  1.874562201369E+00
  1.897056947786E+00  1.919821631159E+00  1.942859490733E+00  1.966173804622E+00
  1.989767890277E+00  2.013645104960E+00  2.037808846220E+00  2.062262552375E+00
  2.087009703003E+00  2.112053819439E+00  2.137398465272E+00  2.163047246856E+00
  2.189003813818E+00  2.215271859584E+00  2.241855121899E+00  2.268757383362E+00
  2.295982471962E+00  2.323534261625E+00  2.351416672765E+00  2.379633672838E+00
  2.408189276912E+00  2.437087548235E+00  2.466332598814E+00  2.495928590000E+00
  2.525879733080E+00  2.556190289877E+00  2.586864573355E+00  2.617906948235E+00
  2.649321831614E+00  2.681113693594E+00  2.713287057917E+00  2.745846502612E+00
  2.778796660643E+00  2.812142220571E+00  2.845887927218E+00  2.880038582344E+00
  2.914599045332E+00  2.949574233876E+00  2.984969124683E+00  3.020788754179E+00
  3.057038219229E+00  3.093722677860E+00  3.130847349994E+00  3.168417518194E+00
  3.206438528413E+00  3.244915790754E+00  3.283854780243E+00  3.323261037606E+00
  3.363140170057E+00  3.403497852097E+00  3.444339826323E+00  3.485671904239E+00
  3.527499967089E+00  3.569829966694E+00  3.612667926295E+00  3.656019941410E+00
  3.699892180707E+00  3.744290886876E+00  3.789222377518E+00  3.834693046048E+00
  3.880709362601E+00  3.927277874952E+00  3.974405209452E+00  4.022098071965E+00
  4.070363248829E+00  4.119207607815E+00  4.168638099108E+00  4.218661756298E+00
  4.269285697373E+00  4.320517125742E+00  4.372363331251E+00  4.424831691226E+00
  4.477929671520E+00  4.531664827579E+00  4.586044805510E+00  4.641077343176E+00
  4.696770271294E+00  4.753131514549E+00  4.810169092724E+00  4.867891121837E+00
  4.926305815299E+00  4.985421485082E+00  5.045246542903E+00  5.105789501418E+00
  5.167058975435E+00  5.229063683140E+00  5.291812447338E+00  5.355314196706E+00
  5.419577967067E+00  5.484612902671E+00  5.550428257503E+00  5.617033396593E+00
  5.684437797353E+00  5.752651050921E+00  5.821682863532E+00  5.891543057894E+00
  5.962241574589E+00  6.033788473484E+00  6.106193935166E+00  6.179468262388E+00
  6.253621881536E+00  6.328665344115E+00  6.404609328244E+00  6.481464640183E+00
  6.559242215865E+00  6.637953122456E+00  6.717608559925E+00  6.798219862644E+00
  6.879798500996E+00  6.962356083008E+00  7.045904356004E+00  7.130455208276E+00
  7.216020670775E+00  7.302612918825E+00  7.390244273851E+00  7.478927205137E+00
  7.568674331599E+00  7.659498423578E+00  7.751412404661E+00  7.844429353517E+00
  7.938562505759E+00  8.033825255828E+00  8.130231158898E+00  8.227793932805E+00
  8.326527459998E+00  8.426445789518E+00  8.527563138992E+00  8.629893896660E+00
  8.733452623420E+00  8.838254054901E+00  8.944313103560E+00  9.051644860803E+00
  9.160264599132E+00  9.270187774322E+00  9.381430027614E+00  9.494007187945E+00
  9.607935274201E+00  9.723230497491E+00  9.839909263461E+00  9.957988174622E+00
  1.007748403272E+01  1.019841384111E+01  1.032079480720E+01  1.044464434489E+01
  1.056998007703E+01  1.069681983795E+01  1.082518167601E+01  1.095508385612E+01
  1.108654486239E+01  1.121958340074E+01  1.135421840155E+01  1.149046902237E+01
  1.162835465064E+01  1.176789490645E+01  1.190910964532E+01  1.205201896107E+01
  1.219664318860E+01  1.234300290686E+01  1.249111894175E+01  1.264101236905E+01
  1.279270451748E+01  1.294621697169E+01  1.310157157535E+01  1.325879043425E+01
  1.341789591946E+01  1.357891067049E+01  1.374185759854E+01  1.390675988972E+01
  1.407364100840E+01  1.424252470050E+01  1.441343499691E+01  1.458639621687E+01
  1.476143297147E+01  1.493857016713E+01  1.511783300913E+01  1.529924700524E+01
  1.548283796931E+01  1.566863202494E+01  1.585665560924E+01  1.604693547655E+01
  1.623949870227E+01  1.643437268670E+01  1.663158515894E+01  1.683116418084E+01
  1.703313815101E+01  1.723753580883E+01  1.744438623853E+01  1.765371887339E+01
  1.786556349987E+01  1.807995026187E+01  1.829690966501E+01  1.851647258100E+01
  1.873867025197E+01  1.896353429499E+01  1.919109670653E+01  1.942138986701E+01
  1.965444654541E+01  1.989029990396E+01  2.012898350281E+01  2.037053130484E+01
  2.061497768050E+01  2.086235741266E+01  2.111270570162E+01  2.136605817003E+01
  2.162245086807E+01  2.188192027849E+01  2.214450332183E+01  2.241023736170E+01
  2.267916021004E+01  2.295131013256E+01  2.322672585415E+01  2.350544656440E+01
  2.378751192317E+01  2.407296206625E+01  2.436183761104E+01  2.465417966238E+01
  2.495002981832E+01  2.524943017614E+01  2.555242333826E+01  2.585905241832E+01
  2.616936104734E+01  2.648339337990E+01  2.680119410046E+01  2.712280842967E+01
  2.744828213082E+01  2.777766151639E+01  2.811099345459E+01  2.844832537605E+01
  2.878970528056E+01  2.913518174393E+01  2.948480392485E+01  2.983862157195E+01
  3.019668503081E+01  3.055904525118E+01  3.092575379420E+01  3.129686283973E+01
  3.167242519381E+01  3.205249429613E+01  3.243712422768E+01  3.282636971842E+01
  3.322028615504E+01  3.361892958890E+01  3.402235674397E+01  3.443062502489E+01
  3.484379252519E+01  3.526191803549E+01  3.568506105192E+01  3.611328178454E+01
  3.654664116596E+01  3.698520085995E+01  3.742902327027E+01  3.787817154951E+01
  3.833270960811E+01  3.879270212340E+01  3.925821454888E+01  3.972931312347E+01
  4.020606488095E+01  4.068853765952E+01  4.117680011144E+01  4.167092171277E+01
  4.217097277333E+01  4.267702444661E+01  4.318914873997E+01  4.370741852485E+01
  4.423190754715E+01
</grid-data>
</grid>
<valence-charge total-charge="15" is-unscreening-charge="yes"
 rescaled-to-z-pseudo="no">
<radfunc>
<data npts="457">
  3.811480200748E-03  3.822459700541E-03  3.863578917407E-03  3.959848980055E-03
  4.151147984875E-03  4.504291716001E-03  5.121436532819E-03  6.057673439726E-03
  7.402486769456E-03  9.360406442821E-03  1.206895573418E-02  1.561412820654E-02
  2.073154080105E-02  2.704556198530E-02  3.576163971211E-02  4.582928697252E-02
  5.910061202199E-02  7.332962559722E-02  9.123081280551E-02  1.137406896714E-01
  1.420278825481E-01  1.697839249466E-01  2.030659264465E-01  2.429471777249E-01
  2.906995590194E-01  3.478269419626E-01  4.161030840192E-01  4.758685099948E-01
  5.440818648741E-01  6.218797019479E-01  7.105374696941E-01  8.114831152414E-01
  9.263111755421E-01  1.056797123967E+00  1.204911653528E+00  1.372834472457E+00
  1.562967060844E+00  1.777943686075E+00  1.936473556885E+00  2.108230767224E+00
  2.294176718107E+00  2.495321148892E+00  2.712721086429E+00  2.947479055462E+00
  3.200740426912E+00  3.473689768689E+00  3.767546051546E+00  4.083556550790E+00
  4.422989273524E+00  4.787123731237E+00  5.177239869348E+00  5.594604959651E+00
  6.040458259200E+00  6.515993241049E+00  7.022337209546E+00  7.560528126829E+00
  8.131488499243E+00  8.735996204079E+00  9.374652180140E+00  1.004784496180E+01
  1.075571210735E+01  1.149809866037E+01  1.227451288895E+01  1.308407967396E+01
  1.392549206452E+01  1.479696168737E+01  1.569616888668E+01  1.615529180600E+01
  1.662021368064E+01  1.709047363544E+01  1.756556884851E+01  1.804495331348E+01
  1.852803670235E+01  1.901418334545E+01  1.950271134578E+01  1.999289184635E+01
  2.048394846937E+01  2.097505694751E+01  2.146534496767E+01  2.195389224851E+01
  2.243973087334E+01  2.292184590042E+01  2.339917627244E+01  2.387061604745E+01
  2.433501597264E+01  2.479118542230E+01  2.523789472004E+01  2.567387786454E+01
  2.609783567653E+01  2.650843938282E+01  2.690433465113E+01  2.728414608676E+01
  2.764648219931E+01  2.798994084394E+01  2.831311513796E+01  2.861459984923E+01
  2.889299824769E+01  2.914692940649E+01  2.937503593304E+01  2.957599210451E+01
  2.974851237544E+01  2.989136021840E+01  3.000335725128E+01  3.008339259739E+01
  3.013043241701E+01  3.014352954098E+01  3.012183312968E+01  3.006459827287E+01
  2.997119543871E+01  2.984111967353E+01  2.967399944747E+01  2.946960503584E+01
  2.922785632117E+01  2.894882989780E+01  2.863276535840E+01  2.828007064131E+01
  2.789132631846E+01  2.746728870672E+01  2.700889169004E+01  2.651724714720E+01
  2.599364388900E+01  2.543954502058E+01  2.485658365870E+01  2.424655695029E+01
  2.361141835765E+01  2.295326819677E+01  2.227434243888E+01  2.157699981012E+01
  2.086370725165E+01  2.013702382992E+01  1.939958321626E+01  1.865407488327E+01
  1.790322419492E+01  1.714977159425E+01  1.639645111915E+01  1.564596849988E+01
  1.490097911285E+01  1.416406608128E+01  1.343771882595E+01  1.272431237554E+01
  1.202608774716E+01  1.134513370233E+01  1.068337017152E+01  1.004253362140E+01
  9.424164613239E+00  8.829597768317E+00  8.259954317300E+00  7.716137366255E+00
  7.198829962421E+00  6.708495989919E+00  6.245383869902E+00  5.809532983039E+00
  5.400782676064E+00  5.018783660129E+00  4.663011558613E+00  4.332782317375E+00
  4.027269152913E+00  3.745520684762E+00  3.486479878874E+00  3.249003419571E+00
  3.031881129301E+00  2.833855067968E+00  2.653637966668E+00  2.489930683357E+00
  2.341438409146E+00  2.206885401851E+00  2.085028076242E+00  1.974666335933E+00
  1.874653087714E+00  1.783901933131E+00  1.701393081948E+00  1.626177575998E+00
  1.557379948110E+00  1.494199468293E+00  1.435910147451E+00  1.381859677606E+00
  1.331467487405E+00  1.284222083600E+00  1.239677834653E+00  1.197450975167E+00
  1.157213795629E+00  1.118687759932E+00  1.081638758974E+00  1.045873410348E+00
  1.011234746316E+00  9.775982998042E-01  9.448682831148E-01  9.129739030684E-01
  8.818658044925E-01  8.515118479758E-01  8.218901256934E-01  7.929817238737E-01
  7.647695020152E-01  7.372388010312E-01  7.103767166692E-01  6.841719341034E-01
  6.586144973338E-01  6.336956022077E-01  6.094074053528E-01  5.857428485283E-01
  5.626954979812E-01  5.402593983385E-01  5.184289405258E-01  4.971987431718E-01
  4.765635469273E-01  4.565181211059E-01  4.370571820301E-01  4.181753224565E-01
  3.998669514472E-01  3.821262440109E-01  3.649470999311E-01  3.483231110709E-01
  3.322475365481E-01  3.167132851520E-01  3.017129043414E-01  2.872385752976E-01
  2.732821133678E-01  2.598349733678E-01  2.468882591896E-01  2.344327371873E-01
  2.224588528430E-01  2.109567502364E-01  1.999162938686E-01  1.893270924191E-01
  1.791785240410E-01  1.694597628267E-01  1.601598061046E-01  1.512675022557E-01
  1.427715787621E-01  1.346606702314E-01  1.269233461618E-01  1.195481382409E-01
  1.125235669938E-01  1.058381676197E-01  9.948051487904E-02  9.343924690820E-02
  8.770308787483E-02  8.226086938260E-02  7.710155056878E-02  7.221423684759E-02
  6.758819726771E-02  6.321288046606E-02  5.907792921237E-02  5.517319355016E-02
  5.148874254969E-02  4.801487469721E-02  4.474212695292E-02  4.166128251627E-02
  3.876337734347E-02  3.603970546666E-02  3.348182316805E-02  3.108155206577E-02
  2.883098117025E-02  2.672246797188E-02  2.474863862163E-02  2.290238726681E-02
  2.117687460420E-02  1.956552571215E-02  1.806202722249E-02  1.666032389173E-02
  1.535461462946E-02  1.413934804016E-02  1.300921753228E-02  1.195915604662E-02
  1.098433045334E-02  1.008013566454E-02  9.242188506964E-03  8.466321396517E-03
  7.748575853848E-03  7.085195897630E-03  6.472621349508E-03  5.907481082202E-03
  5.386586239748E-03  4.906923456465E-03  4.465648098879E-03  4.060077552626E-03
  3.687684574196E-03  3.346090725360E-03  3.033059906167E-03  2.746492000607E-03
  2.484416647296E-03  2.244987145954E-03  2.026474508925E-03  1.827261665635E-03
  1.645837826549E-03  1.480793012021E-03  1.330812750336E-03  1.194672948213E-03
  1.071234936127E-03  9.594406899836E-04  8.583082298571E-04  7.669271958778E-04
  6.844546006612E-04  6.101107571397E-04  5.431753801272E-04  4.829838594951E-04
  4.289237024216E-04  3.804311418134E-04  3.369879076735E-04  2.981181579006E-04
  2.633855647582E-04  2.323905530295E-04  2.047676856910E-04  1.801831927725E-04
  1.583326389443E-04  1.389387252579E-04  1.217492203838E-04  1.065350166248E-04
  9.308830593630E-05  8.122087116348E-05  7.076248769292E-05  6.155943072796E-05
  5.347308342004E-05  4.637864112748E-05  4.016390712763E-05  3.472817517107E-05
  2.998119434789E-05  2.584221182359E-05  2.223908910108E-05  1.910748757407E-05
  1.639011925430E-05  1.403605867911E-05  1.200011213668E-05  1.024224048269E-05
  8.727031963139E-06  7.423221602544E-06  6.303253864618E-06  5.342885441556E-06
  4.520825178783E-06  3.818408292660E-06  3.219302188864E-06  2.709241338082E-06
  2.275788812653E-06  1.908122232210E-06  1.596842007584E-06  1.333799909851E-06
  1.111946124835E-06  9.251930822960E-07  7.682944731273E-07  6.367379868244E-07
  5.266504150823E-07  4.347138754880E-07  3.580920117641E-07  2.943651238556E-07
  2.414732723136E-07  1.976664869639E-07  1.614612898232E-07  1.316028167488E-07
  1.070318915270E-07  8.685647017720E-08  7.032693237248E-08  5.681475124549E-08
  4.579412269726E-08  3.682618087402E-08  2.954546796862E-08  2.364836417970E-08
  1.888321776520E-08  1.504194590156E-08  1.195290474358E-08  9.474851905262E-09
  7.491846776869E-09  5.908953873257E-09  4.648631983977E-09  3.647707462554E-09
  2.854843738931E-09  2.228431240436E-09  1.734832527017E-09  1.346926738423E-09
  1.042905555644E-09  8.052799260730E-10  6.200629105830E-10  4.760992895086E-10
  3.645171119802E-10  2.782802781994E-10  2.118245873295E-10  1.607625365421E-10
  1.216445836016E-10  9.176664322689E-11  6.901532686364E-11  5.174390098021E-11
  3.867316970041E-11  2.881251775289E-11  2.139720919241E-11  1.583875204509E-11
  1.168573135626E-11  8.593002379697E-12  6.297538407877E-12  4.599558165813E-12
  3.347827835601E-12  2.428252875385E-12  1.755053488980E-12  1.263962167208E-12
  9.069982600122E-13  6.484681448350E-13  4.619144707609E-13  3.277976920336E-13
  2.317405582233E-13  1.632037849553E-13  1.144907404579E-13  8.000224082950E-14
  5.568074363702E-14  3.859741090806E-14  2.664652118381E-14  1.832022182452E-14
  1.254316709346E-14  8.551614040934E-15  5.805388192010E-15  3.924048102854E-15
  2.640794406941E-15  1.769331148961E-15  1.180143146825E-15  7.835879968198E-16
  5.178984129421E-16  3.407069643962E-16  2.230861842457E-16  1.453767229082E-16
  9.428065628733E-17  6.084578541103E-17  3.907445246418E-17  2.496799879588E-17
  1.587363990065E-17  1.004024491561E-17  6.317707755993E-18  3.954520976929E-18
  2.462170320903E-18  1.524758776610E-18  0.000000000000E+00  0.000000000000E+00
  0.000000000000E+00  0.000000000000E+00  0.000000000000E+00  0.000000000000E+00
  0.000000000000E+00  0.000000000000E+00  0.000000000000E+00  0.000000000000E+00
  0.000000000000E+00  0.000000000000E+00  0.000000000000E+00  0.000000000000E+00
  0.000000000000E+00  0.000000000000E+00  0.000000000000E+00  0.000000000000E+00
  0.000000000000E+00  0.000000000000E+00  0.000000000000E+00  0.000000000000E+00
  0.000000000000E+00  0.000000000000E+00  0.000000000000E+00  0.000000000000E+00
  0.000000000000E+00  0.000000000000E+00  0.000000000000E+00  0.000000000000E+00
  0.000000000000E+00
</data>
</radfunc>
</valence-charge>
<pseudocore-charge matching-radius="0.648386916501"
 number-of-continuous-derivatives="4">
<annotation model-charge-form="Teter function with specified parameters" />
<radfunc>
<data npts="290">
  1.538236098494E+02  1.538085637321E+02  1.537635886836E+02  1.536885643715E+02
  1.535842746133E+02  1.534471795387E+02  1.532725109920E+02  1.530725792786E+02
  1.528478780175E+02  1.525859752352E+02  1.522909395216E+02  1.519704646822E+02
  1.515834429479E+02  1.511795783671E+02  1.507036085733E+02  1.502287518196E+02
  1.496825582055E+02  1.491654355545E+02  1.485848018992E+02  1.479331421673E+02
  1.472021286057E+02  1.465540268852E+02  1.458441169874E+02  1.450668431228E+02
  1.442162211298E+02  1.432858208018E+02  1.422687512106E+02  1.414446613891E+02
  1.405644068957E+02  1.396245553120E+02  1.386215252933E+02  1.375515901048E+02
  1.364108832824E+02  1.351954067790E+02  1.339010419934E+02  1.325235641245E+02
  1.310586603317E+02  1.295019522240E+02  1.284109640226E+02  1.272758996629E+02
  1.260954515207E+02  1.248683213537E+02  1.235932264714E+02  1.222689065549E+02
  1.208941311653E+02  1.194677079759E+02  1.179884917653E+02  1.164553942023E+02
  1.148673944523E+02  1.132235506306E+02  1.115230121208E+02  1.097650327709E+02
  1.079489849714E+02  1.060743746071E+02  1.041408568661E+02  1.021482528714E+02
  1.000965670872E+02  9.798600543089E+01  9.581699400260E+01  9.359019831776E+01
  9.130654290369E+01  8.896723109009E+01  8.657376479162E+01  8.412796404574E+01
  8.163198603127E+01  7.908834325387E+01  7.649992054303E+01  7.518992386109E+01
  7.386999046292E+01  7.254059219997E+01  7.120222669702E+01  6.985541762537E+01
  6.850071492446E+01  6.713869496744E+01  6.576996066645E+01  6.439514151245E+01
  6.301489354528E+01  6.162989924897E+01  6.024086736732E+01  5.884853263500E+01
  5.745365541920E+01  5.605702126684E+01  5.465944035271E+01  5.326174682361E+01
  5.186479803395E+01  5.046947366845E+01  4.907667474755E+01  4.768732251170E+01
  4.630235718089E+01  4.492273658602E+01  4.354943466941E+01  4.218343985199E+01
  4.082575326545E+01  3.947738684801E+01  3.813936130346E+01  3.681270392364E+01
  3.549844627535E+01  3.419762175382E+01  3.291126300540E+01  3.164039922373E+01
  3.038605332413E+01  2.914923900266E+01  2.793095768713E+01  2.673219538887E+01
  2.555391946534E+01  2.439707530487E+01  2.326258294654E+01  2.215133364946E+01
  2.106418642702E+01  2.000196456354E+01  1.896545213177E+01  1.795539053127E+01
  1.697247506909E+01  1.601735160546E+01  1.509061328809E+01  1.419279740033E+01
  1.332438234871E+01  1.248578481680E+01  1.167735711225E+01  1.089938473495E+01
  1.015208419371E+01  9.435601099205E+00  8.750008560153E+00  8.095305909214E+00
  7.471417783760E+00  6.878193585321E+00  6.315407339648E+00  5.782757977042E+00
  5.279870050003E+00  4.806294902133E+00  4.361512298805E+00  3.944932526188E+00
  3.555898961018E+00  3.193691108819E+00  2.857528103411E+00  2.546572655234E+00
  2.259935430616E+00  1.996679838454E+00  1.755827195023E+00  1.536362231926E+00
  1.337238906469E+00  1.157386468272E+00  9.957157306892E-01  8.511254907675E-01
  7.225090371654E-01  6.087606817374E-01  5.087822475465E-01  4.214894439744E-01
  3.458180584758E-01  2.807298944753E-01  2.252183860060E-01  1.783138220139E-01
  1.390881168490E-01  1.066590683464E-01  8.019405107475E-02  5.891309974314E-02
  4.209134635452E-02  2.906078435123E-02  1.921134358433E-02  1.199127126483E-02
  6.906825908298E-03  3.521303415267E-03  1.453426561551E-03  3.751410045154E-04
  8.872128842747E-06  1.243073357515E-04  5.347774042011E-04  1.093318016693E-03
  1.688498167498E-03  2.240105717851E-03  2.694781642004E-03  3.021693394011E-03
  3.208334264450E-03  3.256529617642E-03  3.178722619320E-03  2.994601688898E-03
  2.728119735424E-03  2.404941642867E-03  2.050341913709E-03  1.687559376166E-03
  1.336600967625E-03  1.013472402474E-03  7.298005873604E-04  4.928014973479E-04
  3.055383454931E-04  1.674086474937E-04  7.479546680107E-05  2.181785027068E-05
  1.118203502260E-06  4.629922098033E-06  2.427664639330E-05  5.256455425590E-05
  8.304053903198E-05  1.106012385116E-04  1.316499394000E-04  1.441096341537E-04
  1.473102587556E-04  1.417757991483E-04  1.289420777367E-04  1.108383635683E-04
  8.976544655418E-05  6.799965473684E-05  4.754686374266E-05  2.996342290861E-05
  1.625281480695E-05  6.838562130249E-06  1.606190811135E-06  6.720729410292E-10
  1.161276176092E-06  4.073549432834E-06  7.718299411867E-06  1.119990368972E-05
  1.384055684234E-05  1.523264197330E-05  1.524752087993E-05  1.400489446906E-05
  1.181175420555E-05  9.083232940435E-06  6.259001387937E-06  3.728154239492E-06
  1.772988962339E-06  5.381667682228E-07  2.712121874546E-08  0.000000000000E+00
  0.000000000000E+00  0.000000000000E+00  0.000000000000E+00  0.000000000000E+00
  0.000000000000E+00  0.000000000000E+00  0.000000000000E+00  0.000000000000E+00
  0.000000000000E+00  0.000000000000E+00  0.000000000000E+00  0.000000000000E+00
  0.000000000000E+00  0.000000000000E+00  0.000000000000E+00  0.000000000000E+00
  0.000000000000E+00  0.000000000000E+00  0.000000000000E+00  0.000000000000E+00
  0.000000000000E+00  0.000000000000E+00  0.000000000000E+00  0.000000000000E+00
  0.000000000000E+00  0.000000000000E+00  0.000000000000E+00  0.000000000000E+00
  0.000000000000E+00  0.000000000000E+00  0.000000000000E+00  0.000000000000E+00
  0.000000000000E+00  0.000000000000E+00  0.000000000000E+00  0.000000000000E+00
  0.000000000000E+00  0.000000000000E+00  0.000000000000E+00  0.000000000000E+00
  0.000000000000E+00  0.000000000000E+00  0.000000000000E+00  0.000000000000E+00
  0.000000000000E+00  0.000000000000E+00  0.000000000000E+00  0.000000000000E+00
  0.000000000000E+00  0.000000000000E+00  0.000000000000E+00  0.000000000000E+00
  0.000000000000E+00  0.000000000000E+00  0.000000000000E+00  0.000000000000E+00
  0.000000000000E+00  0.000000000000E+00  0.000000000000E+00  0.000000000000E+00
  0.000000000000E+00  0.000000000000E+00  0.000000000000E+00  0.000000000000E+00
  0.000000000000E+00  0.000000000000E+00
</data>
</radfunc>
</pseudocore-charge>
<semilocal-potentials set="scalar_relativistic">
<slps n="4" l="s" rc="1.80866576485" eref="-0.540202500065">
<radfunc>
<data npts="290">
  5.465390085203E+01  5.460948631636E+01  5.447701761533E+01  5.425701651523E+01
  5.395320440313E+01  5.355733587195E+01  5.305866189813E+01  5.249554376308E+01
  5.187223815772E+01  5.115822008999E+01  5.036952661118E+01  4.953105118285E+01
  4.854289585338E+01  4.753917000775E+01  4.639069976139E+01  4.528042725158E+01
  4.404512183118E+01  4.291474553940E+01  4.168864872365E+01  4.036399933985E+01
  3.893900820100E+01  3.772636386989E+01  3.644952433991E+01  3.510954309280E+01
  3.370818763320E+01  3.224798060153E+01  3.073222593782E+01  2.956138988343E+01
  2.836361036424E+01  2.714114216071E+01  2.589646811978E+01  2.463228386283E+01
  2.335147859866E+01  2.205711227407E+01  2.075238941410E+01  1.944063011730E+01
  1.812523877231E+01  1.680967114586E+01  1.593424365115E+01  1.506130830158E+01
  1.419188386320E+01  1.332697707638E+01  1.246757845883E+01  1.161465828664E+01
  1.076916279095E+01  9.932010604126E+00  9.104089485692E+00  8.286253353882E+00
  7.479319644230E+00  6.684067011706E+00  5.901233388064E+00  5.131514401050E+00
  4.375562157278E+00  3.633984385746E+00  2.907343934428E+00  2.196158608076E+00
  1.500901331332E+00  8.220006176512E-01  1.598413212349E-01 -4.852343536793E-01
 -1.112925614308E+00 -1.722971641784E+00 -2.315149986453E+00 -2.889274829159E+00
 -3.445195142551E+00 -3.982792787015E+00 -4.501980576000E+00 -4.754651516863E+00
 -5.002700345367E+00 -5.246124015160E+00 -5.484921060886E+00 -5.719091543455E+00
 -5.948636997192E+00 -6.173560379076E+00 -6.393866020316E+00 -6.609559580477E+00
 -6.820648004364E+00 -7.027139481874E+00 -7.229043410997E+00 -7.426370364144E+00
 -7.619132057973E+00 -7.807341326860E+00 -7.991012100139E+00 -8.170159383244E+00
 -8.344799242836E+00 -8.514948795997E+00 -8.680626203545E+00 -8.841850667497E+00
 -8.998642432678E+00 -9.151022792457E+00 -9.299014098543E+00 -9.442639774737E+00
 -9.581924334530E+00 -9.716893402341E+00 -9.847573738204E+00 -9.973993265613E+00
 -1.009618110222E+01 -1.021416759299E+01 -1.032798434542E+01 -1.043766426626E+01
 -1.054324159926E+01 -1.064475196317E+01 -1.074223238947E+01 -1.083572135890E+01
 -1.092525883600E+01 -1.101088630071E+01 -1.109264677601E+01 -1.117058485055E+01
 -1.124474669504E+01 -1.131518007123E+01 -1.138193433218E+01 -1.144506041232E+01
 -1.150461080614E+01 -1.156063953389E+01 -1.161320209274E+01 -1.166235539222E+01
 -1.170815767210E+01 -1.175066840151E+01 -1.178994815785E+01 -1.182605848410E+01
 -1.185906172338E+01 -1.188902082971E+01 -1.191599915399E+01 -1.194006020457E+01
 -1.196126738196E+01 -1.197968368749E+01 -1.199537140601E+01 -1.200839176336E+01
 -1.201880455935E+01 -1.202666777769E+01 -1.203203717484E+01 -1.203496585014E+01
 -1.203550380024E+01 -1.203369746152E+01 -1.202958924469E+01 -1.202321706679E+01
 -1.201461388615E+01 -1.200380724697E+01 -1.199081884086E+01 -1.197566409362E+01
 -1.195835178621E+01 -1.193888372013E+01 -1.191725443790E+01 -1.189345101071E+01
 -1.186745290565E+01 -1.183923194624E+01 -1.180875238025E+01 -1.177597106944E+01
 -1.174083781591E+01 -1.170329583932E+01 -1.166328241858E+01 -1.162072970938E+01
 -1.157556574661E+01 -1.152771563642E+01 -1.147710293769E+01 -1.142365122597E+01