<?xml version="1.0" encoding="UTF-8" ?>
<psml version="1.1" energy_unit="hartree" length_unit="bohr"
 uuid="cdb12390-23d3-11e8-50c7-51e4fddfc848"
 xmlns="http://esl.cecam.org/PSML/ns/1.1">
<provenance creator="ONCVPSP-3.3.0+psml-3.3.0-73 (scalar-relativistic)"
 date="2018-03-09">
<annotation action="semilocal-pseudopotential-generation"
 action-cont="projectors-generation" />
<input-file name="oncvpsp-input">
<![CDATA[# atsym z nc nv iexc psfile
Au 79 10 4 -001012 upf
# n l f
1 0 2.0
2 0 2.0
2 1 6.0
3 0 2.0
3 1 6.0
3 2 10.0
4 0 2.0
4 1 6.0
4 2 10.0
4 3 14.0
5 0 2.0
5 1 6.0
5 2 10.0
6 0 1.0
# lmax
3
# l rc ep ncon nbas qcut
0 1.45 0.0 4 8 8.6
1 1.55 0.0 4 8 8.4
2 1.55 0.0 4 8 8.4
3 1.6 0.1 4 8 6.8
# lloc lpopt rc5 dvloc0
4 3 1.4 0.0
# l nproj debl
0 2 1.0
1 2 2.5
2 2 1.5
3 1 1.5
# icmod fcfact rcfact
3 5.0 1.37
# epsh1 epsh2 depsh
-14.0 12.0 0.02
# rlmax drl
5.0 0.01
 0
]]>
</input-file>
</provenance>
<pseudo-atom-spec atomic-label="Au" atomic-number="79" z-pseudo="19"
 flavor="Hamann&apos;s oncvpsp" relativity="scalar" spin-dft="no"
 core-corrections="yes">
<annotation pseudo-energy="-138.024273998" />
<exchange-correlation>
<annotation oncvpsp-xc-code="-1012" oncvpsp-xc-type="libxc-interface" />
<libxc-info number-of-functionals="2">
<functional name="Slater exchange (LDA)" type="exchange" id="1" />
<functional name="Perdew &amp; Wang (LDA)" type="correlation" id="12" />
</libxc-info>
</exchange-correlation>
<valence-configuration total-valence-charge="19">
<shell n="5" l="s" occupation="2" />
<shell n="5" l="p" occupation="6" />
<shell n="5" l="d" occupation="10" />
<shell n="6" l="s" occupation="1" />
</valence-configuration>
</pseudo-atom-spec>
<grid npts="457">
<annotation type="sampled from oncvpsp log grid"
 recipe="r(i:1..N) = r1*exp(a*(i-1)) + r=0; resampled"
 recipe-cont="r1: scale; a: step" scale="0.632911392405E-05"
 step="0.119285708653E-01" delta="0.500000000000E-02" rmax="44.1367072872" />
<grid-data>
  0.000000000000E+00  5.039992789998E-03  1.006699007359E-02  1.510209039707E-02
  2.010802264298E-02  2.522313725547E-02  3.052722328344E-02  3.564790122404E-02
  4.113392158581E-02  4.634525124339E-02  5.159764181868E-02  5.676412574402E-02
  6.244793091137E-02  6.788622215170E-02  7.292303175120E-02  7.833354679692E-02
  8.414549431680E-02  8.931685626691E-02  9.480603659383E-02  1.006325675835E-01
  1.068171819253E-01  1.120374372382E-01  1.175128112974E-01  1.232557719939E-01
  1.292793965363E-01  1.355974012286E-01  1.422241727032E-01  1.474059295265E-01
  1.527764770685E-01  1.583426936788E-01  1.641117083111E-01  1.700909096533E-01
  1.762879555909E-01  1.827107830146E-01  1.893676179856E-01  1.962669862713E-01
  2.034177242645E-01  2.108289903007E-01  2.159192454425E-01  2.211323997045E-01
  2.264714203629E-01  2.319393463362E-01  2.375392899141E-01  2.432744385298E-01
  2.491480565737E-01  2.551634872516E-01  2.613241544878E-01  2.676335648737E-01
  2.740953096641E-01  2.807130668206E-01  2.874906031059E-01  2.944317762273E-01
  3.015405370325E-01  3.088209317586E-01  3.162771043350E-01  3.239132987421E-01
  3.317338614269E-01  3.397432437772E-01  3.479460046550E-01  3.563468129913E-01
  3.649504504442E-01  3.737618141197E-01  3.827859193598E-01  3.920279025969E-01
  4.014930242772E-01  4.111866718553E-01  4.211143628606E-01  4.261677352149E-01
  4.312817480375E-01  4.364571290139E-01  4.416946145621E-01  4.469949499368E-01
  4.523588893361E-01  4.577871960081E-01  4.632806423602E-01  4.688400100685E-01
  4.744660901894E-01  4.801596832716E-01  4.859215994709E-01  4.917526586645E-01
  4.976536905685E-01  5.036255348553E-01  5.096690412736E-01  5.157850697689E-01
  5.219744906061E-01  5.282381844934E-01  5.345770427073E-01  5.409919672198E-01
  5.474838708264E-01  5.540536772764E-01  5.607023214037E-01  5.674307492605E-01
  5.742399182516E-01  5.811307972707E-01  5.881043668379E-01  5.951616192400E-01
  6.023035586708E-01  6.095312013749E-01  6.168455757914E-01  6.242477227009E-01
  6.317386953733E-01  6.393195597178E-01  6.469913944344E-01  6.547552911676E-01
  6.626123546616E-01  6.705637029176E-01  6.786104673526E-01  6.867537929608E-01
  6.949948384763E-01  7.033347765380E-01  7.117747938565E-01  7.203160913828E-01
  7.289598844794E-01  7.377074030931E-01  7.465598919302E-01  7.555186106334E-01
  7.645848339610E-01  7.737598519685E-01  7.830449701922E-01  7.924415098345E-01
  8.019508079525E-01  8.115742176479E-01  8.213131082597E-01  8.311688655588E-01
  8.411428919455E-01  8.512366066489E-01  8.614514459286E-01  8.717888632798E-01
  8.822503296391E-01  8.928373335948E-01  9.035513815979E-01  9.143939981771E-01
  9.253667261553E-01  9.364711268691E-01  9.477087803915E-01  9.590812857562E-01
  9.705902611853E-01  9.822373443195E-01  9.940241924514E-01  1.005952482761E+00
  1.018023912554E+00  1.030240199505E+00  1.042603081899E+00  1.055114318881E+00
  1.067775690708E+00  1.080588998996E+00  1.093556066984E+00  1.106678739788E+00
  1.119958884666E+00  1.133398391282E+00  1.146999171977E+00  1.160763162041E+00
  1.174692319985E+00  1.188788627825E+00  1.203054091359E+00  1.217490740455E+00
  1.232100629341E+00  1.246885836893E+00  1.261848466936E+00  1.276990648539E+00
  1.292314536321E+00  1.307822310757E+00  1.323516178486E+00  1.339398372628E+00
  1.355471153100E+00  1.371736806937E+00  1.388197648620E+00  1.404856020403E+00
  1.421714292648E+00  1.438774864160E+00  1.456040162530E+00  1.473512644480E+00
  1.491194796214E+00  1.509089133769E+00  1.527198203374E+00  1.545524581814E+00
  1.564070876796E+00  1.582839727318E+00  1.601833804046E+00  1.621055809694E+00
  1.640508479410E+00  1.660194581163E+00  1.680116916137E+00  1.700278319131E+00
  1.720681658961E+00  1.741329838868E+00  1.762225796934E+00  1.783372506498E+00
  1.804772976576E+00  1.826430252295E+00  1.848347415322E+00  1.870527584306E+00
  1.892973915318E+00  1.915689602301E+00  1.938677877529E+00  1.961942012059E+00
  1.985485316204E+00  2.009311139999E+00  2.033422873679E+00  2.057823948163E+00
  2.082517835541E+00  2.107508049567E+00  2.132798146162E+00  2.158391723916E+00
  2.184292424603E+00  2.210503933698E+00  2.237029980903E+00  2.263874340673E+00
  2.291040832761E+00  2.318533322755E+00  2.346355722628E+00  2.374511991299E+00
  2.403006135195E+00  2.431842208817E+00  2.461024315323E+00  2.490556607107E+00
  2.520443286392E+00  2.550688605829E+00  2.581296869099E+00  2.612272431528E+00
  2.643619700706E+00  2.675343137115E+00  2.707447254760E+00  2.739936621817E+00
  2.772815861279E+00  2.806089651614E+00  2.839762727434E+00  2.873839880163E+00
  2.908325958725E+00  2.943225870230E+00  2.978544580672E+00  3.014287115640E+00
  3.050458561028E+00  3.087064063760E+00  3.124108832526E+00  3.161598138516E+00
  3.199537316178E+00  3.237931763972E+00  3.276786945140E+00  3.316108388482E+00
  3.355901689143E+00  3.396172509413E+00  3.436926579526E+00  3.478169698480E+00
  3.519907734862E+00  3.562146627680E+00  3.604892387213E+00  3.648151095859E+00
  3.691928909009E+00  3.736232055918E+00  3.781066840589E+00  3.826439642676E+00
  3.872356918388E+00  3.918825201408E+00  3.965851103825E+00  4.013441317071E+00
  4.061602612876E+00  4.110341844231E+00  4.159665946361E+00  4.209581937718E+00
  4.260096920970E+00  4.311218084022E+00  4.362952701030E+00  4.415308133443E+00
  4.468291831044E+00  4.521911333016E+00  4.576174269013E+00  4.631088360241E+00
  4.686661420564E+00  4.742901357610E+00  4.799816173902E+00  4.857413967988E+00
  4.915702935604E+00  4.974691370832E+00  5.034387667282E+00  5.094800319289E+00
  5.155937923120E+00  5.217809178198E+00  5.280422888336E+00  5.343787962996E+00
  5.407913418552E+00  5.472808379575E+00  5.538482080130E+00  5.604943865091E+00
  5.672203191472E+00  5.740269629770E+00  5.809152865327E+00  5.878862699711E+00
  5.949409052108E+00  6.020801960733E+00  6.093051584262E+00  6.166168203273E+00
  6.240162221712E+00  6.315044168373E+00  6.390824698393E+00  6.467514594774E+00
  6.545124769911E+00  6.623666267150E+00  6.703150262356E+00  6.783588065504E+00
  6.864991122290E+00  6.947371015758E+00  7.030739467947E+00  7.115108341562E+00
  7.200489641661E+00  7.286895517361E+00  7.374338263569E+00  7.462830322732E+00
  7.552384286605E+00  7.643012898044E+00  7.734729052821E+00  7.827545801455E+00
  7.921476351072E+00  8.016534067285E+00  8.112732476092E+00  8.210085265805E+00
  8.308606288995E+00  8.408309564463E+00  8.509209279237E+00  8.611319790587E+00
  8.714655628075E+00  8.819231495611E+00  8.925062273559E+00  9.032163020841E+00
  9.140548977092E+00  9.250235564817E+00  9.361238391594E+00  9.473573252294E+00
  9.587256131321E+00  9.702303204897E+00  9.818730843356E+00  9.936555613476E+00
  1.005579428084E+01  1.017646381221E+01  1.029858137795E+01  1.042216435449E+01
  1.054723032674E+01  1.067379709066E+01  1.080188265575E+01  1.093150524762E+01
  1.106268331059E+01  1.119543551032E+01  1.132978073644E+01  1.146573810528E+01
  1.160332696254E+01  1.174256688610E+01  1.188347768873E+01  1.202607942099E+01
  1.217039237404E+01  1.231643708253E+01  1.246423432752E+01  1.261380513945E+01
  1.276517080113E+01  1.291835285074E+01  1.307337308495E+01  1.323025356197E+01
  1.338901660471E+01  1.354968480397E+01  1.371228102162E+01  1.387682839388E+01
  1.404335033460E+01  1.421187053862E+01  1.438241298508E+01  1.455500194090E+01
  1.472966196419E+01  1.490641790776E+01  1.508529492266E+01  1.526631846173E+01
  1.544951428327E+01  1.563490845467E+01  1.582252735613E+01  1.601239768440E+01
  1.620454645661E+01  1.639900101409E+01  1.659578902626E+01  1.679493849457E+01
  1.699647775651E+01  1.720043548959E+01  1.740684071546E+01  1.761572280405E+01
  1.782711147770E+01  1.804103681543E+01  1.825752925721E+01  1.847661960830E+01
  1.869833904360E+01  1.892271911212E+01  1.914979174147E+01  1.937958924237E+01
  1.961214431328E+01  1.984749004503E+01  2.008565992558E+01  2.032668784468E+01
  2.057060809882E+01  2.081745539600E+01  2.106726486076E+01  2.132007203909E+01
  2.157591290355E+01  2.183482385840E+01  2.209684174470E+01  2.236200384563E+01
  2.263034789178E+01  2.290191206648E+01  2.317673501128E+01  2.345485583142E+01
  2.373631410139E+01  2.402114987061E+01  2.430940366906E+01  2.460111651309E+01
  2.489632991124E+01  2.519508587018E+01  2.549742690062E+01  2.580339602343E+01
  2.611303677571E+01  2.642639321702E+01  2.674350993562E+01  2.706443205485E+01
  2.738920523951E+01  2.771787570238E+01  2.805049021081E+01  2.838709609334E+01
  2.872774124646E+01  2.907247414142E+01  2.942134383111E+01  2.977439995709E+01
  3.013169275657E+01  3.049327306965E+01  3.085919234649E+01  3.122950265464E+01
  3.160425668650E+01  3.198350776674E+01  3.236730985994E+01  3.275571757826E+01
  3.314878618920E+01  3.354657162347E+01  3.394913048295E+01  3.435652004875E+01
  3.476879828933E+01  3.518602386880E+01  3.560825615523E+01  3.603555522909E+01
  3.646798189184E+01  3.690559767454E+01  3.734846484664E+01  3.779664642480E+01
  3.825020618189E+01  3.870920865608E+01  3.917371915995E+01  3.964380378987E+01
  4.011952943535E+01  4.060096378857E+01  4.108817535403E+01  4.158123345828E+01
  4.208020825978E+01  4.258517075890E+01  4.309619280801E+01  4.361334712170E+01
  4.413670728716E+01
</grid-data>
</grid>
<valence-charge total-charge="19" is-unscreening-charge="yes"
 rescaled-to-z-pseudo="no">
<radfunc>
<data npts="457">
  1.971625113641E+00  1.973292806957E+00  1.978278616211E+00  1.986598394532E+00
  1.998169347392E+00  2.013390314267E+00  2.032799758596E+00  2.055039707738E+00
  2.082682001709E+00  2.112594179007E+00  2.146342499015E+00  2.183063124812E+00
  2.227495391121E+00  2.273962238050E+00  2.320444232311E+00  2.374062257795E+00
  2.435907705794E+00  2.494631434089E+00  2.560764319505E+00  2.635234885305E+00
  2.719085764422E+00  2.793701844513E+00  2.875730937653E+00  2.965899680354E+00
  3.065003116750E+00  3.173910304513E+00  3.293570122198E+00  3.390990398844E+00
  3.495509178011E+00  3.607626897384E+00  3.727875698586E+00  3.856820649481E+00
  3.995060824429E+00  4.143230185623E+00  4.301998195938E+00  4.472070078596E+00
  4.654186621324E+00  4.849123402133E+00  4.986601747471E+00  5.130384257935E+00
  5.280724047158E+00  5.437879378539E+00  5.602112998772E+00  5.773691329675E+00
  5.952883500097E+00  6.139960198034E+00  6.335192321281E+00  6.538849403240E+00
  6.751197788660E+00  6.972498532392E+00  7.203004992580E+00  7.442960088216E+00
  7.692593189699E+00  7.952116610138E+00  8.221721664572E+00  8.501574264377E+00
  8.791810014869E+00  9.092528785781E+00  9.403788727045E+00  9.725599706398E+00
  1.005791615095E+01  1.040062928240E+01  1.075355874517E+01  1.111644363893E+01
  1.148893298173E+01  1.187057564825E+01  1.226080984867E+01  1.245894028084E+01
  1.265895223920E+01  1.286073948516E+01  1.306418678409E+01  1.326916955480E+01
  1.347555352204E+01  1.368319437406E+01  1.389193742702E+01  1.410161729884E+01
  1.431205759458E+01  1.452307060616E+01  1.473445702922E+01  1.494600570007E+01
  1.515749335591E+01  1.536868442184E+01  1.557933082814E+01  1.578917186169E+01
  1.599793405538E+01  1.620533111982E+01  1.641106392147E+01  1.661482051173E+01
  1.681627621155E+01  1.701509375613E+01  1.721092350459E+01  1.740340371920E+01
  1.759216091905E+01  1.777681031292E+01  1.795695631582E+01  1.813219315397E+01
  1.830210556220E+01  1.846626957819E+01  1.862425343693E+01  1.877561856904E+01
  1.891992070555E+01  1.905671109169E+01  1.918553781118E+01  1.930594722207E+01
  1.941748550430E+01  1.951970031806E+01  1.961214257139E+01  1.969436829400E+01
  1.976594061339E+01  1.982643182789E+01  1.987542557013E+01  1.991251905270E+01
  1.993732538667E+01  1.994947596192E+01  1.994862287654E+01  1.993444140139E+01
  1.990663246390E+01  1.986492513399E+01  1.980907909327E+01  1.973888706744E+01
  1.965417720032E+01  1.955481534697E+01  1.944070726211E+01  1.931180065951E+01
  1.916808711718E+01  1.900960380308E+01  1.883643499598E+01  1.864871337631E+01
  1.844662106280E+01  1.823039037127E+01  1.800030427399E+01  1.775669653924E+01
  1.749995153341E+01  1.723050367051E+01  1.694883649682E+01  1.665548140232E+01
  1.635101595386E+01  1.603606184940E+01  1.571128249706E+01  1.537738022719E+01
  1.503509315040E+01  1.468519167938E+01  1.432847473698E+01  1.396576567788E+01
  1.359790795519E+01  1.322576056820E+01  1.285019333049E+01  1.247208200145E+01
  1.209230332695E+01  1.171173003660E+01  1.133122584711E+01  1.095164052147E+01
  1.057380503377E+01  1.019852688878E+01  9.826585643488E+00  9.458728675778E+00
  9.095667242102E+00  8.738072862373E+00  8.386574066014E+00  8.041753528210E+00
  7.704145620262E+00  7.374234392331E+00  7.052452001168E+00  6.739177589541E+00
  6.434736618214E+00  6.139400645569E+00  5.853387544383E+00  5.576862139967E+00
  5.309937248963E+00  5.052675093997E+00  4.805089066948E+00  4.567146066361E+00
  4.338770048955E+00  4.119846135757E+00  3.910222598731E+00  3.709713123713E+00
  3.518099152352E+00  3.335133789376E+00  3.160551476354E+00  2.994080872708E+00
  2.835447507738E+00  2.684374630992E+00  2.540585046340E+00  2.403802391736E+00
  2.273752335272E+00  2.150163630303E+00  2.032769041595E+00  1.921306150033E+00
  1.815518043450E+00  1.715153901326E+00  1.619969480476E+00  1.529727510471E+00
  1.444198005098E+00  1.363158497776E+00  1.286394207877E+00  1.213698144766E+00
  1.144871156084E+00  1.079721926484E+00  1.018066932659E+00  9.597303601986E-01
  9.045439874208E-01  8.523470409566E-01  8.029860275370E-01  7.563145460433E-01
  7.121930835507E-01  6.704887987482E-01  6.310752957954E-01  5.938323913600E-01
  5.586458772838E-01  5.254072810449E-01  4.940136259146E-01  4.643671924658E-01
  4.363752828557E-01  4.099499890961E-01  3.850079663283E-01  3.614702119423E-01
  3.392618512194E-01  3.183119300302E-01  2.985532149908E-01  2.799220013638E-01
  2.623579288883E-01  2.458038056326E-01  2.302054398856E-01  2.155114800383E-01
  2.016732623445E-01  1.886446664087E-01  1.763819782040E-01  1.648437603956E-01
  1.539907297170E-01  1.437856411294E-01  1.341931784807E-01  1.251798513706E-01
  1.167138979250E-01  1.087651931808E-01  1.013051627834E-01  9.430670170605E-02
  8.774409770232E-02  8.159295921530E-02  7.583014747392E-02  7.043371251821E-02
  6.538283290649E-02  6.065775886916E-02  5.623975868586E-02  5.211106807517E-02
  4.825484239820E-02  4.465511148837E-02  4.129673693473E-02  3.816537165334E-02
  3.524742159544E-02  3.253000945069E-02  3.000094021383E-02  2.764866849308E-02
  2.546226744729E-02  2.343139924776E-02  2.154628696836E-02  1.979768781522E-02
  1.817686761414E-02  1.667557648040E-02  1.528602560143E-02  1.400086506861E-02
  1.281316269912E-02  1.171638379393E-02  1.070437178181E-02  9.771329703437E-03
  8.911802493237E-03  8.120660019676E-03  7.393080847920E-03  6.724536691343E-03
  6.110777520860E-03  5.547817303344E-03  5.031920342337E-03  4.559588196196E-03
  4.127547150397E-03  3.732736222303E-03  3.372295678017E-03  3.043556042203E-03
  2.744027582856E-03  2.471390254001E-03  2.223484080232E-03  1.998299967763E-03
  1.793970927444E-03  1.608763695796E-03  1.441070740757E-03  1.289402639284E-03
  1.152380814493E-03  1.028730620373E-03  9.172747625195E-04  8.169270436282E-04
  7.266864228197E-04  6.456313780915E-04  5.729145614511E-04  5.077577364869E-04
  4.494469883271E-04  3.973281961129E-04  3.508027582746E-04  3.093235610532E-04
  2.723911808564E-04  2.395503111796E-04  2.103864049604E-04  1.845225233790E-04
  1.616163822516E-04  1.413575873142E-04  1.234650498399E-04  1.076845741888E-04
  9.378660905003E-05  8.156415430647E-05  7.083081562583E-05  6.141899906974E-05
  5.317823820276E-05  4.597364638460E-05  3.968448713703E-05  3.420285569205E-05
  2.943246505000E-05  2.528753010417E-05  2.169174362167E-05  1.857733810739E-05
  1.588422781904E-05  1.355922544419E-05  1.155532819498E-05  9.831068321328E-06
  8.349923287802E-06  7.079781102775E-06  5.992456528713E-06  5.063254140009E-06
  4.270574427762E-06  3.595559379124E-06  3.021774181293E-06  2.534921916429E-06
  2.122588323019E-06  1.774013901170E-06  1.479890833399E-06  1.232182378480E-06
  1.023962573518E-06  8.492742484633E-07  7.030035176077E-07  5.807690642293E-07
  4.788246774596E-07  3.939736346919E-07  3.234936485983E-07  2.650712152210E-07
  2.167443088734E-07  1.768524709829E-07  1.439934338089E-07  1.169855064808E-07
  9.483503035447E-08  7.670828361571E-08  6.190728172740E-08  4.984898106982E-08
  4.004744833328E-08  3.209860823956E-08  2.566722735290E-08  2.047583243906E-08
  1.629529838057E-08  1.293687338520E-08  1.024543844670E-08  8.093824031271E-09
  6.378030055761E-09  5.013215660942E-09  3.930343319461E-09  3.073377687561E-09
  2.396953532293E-09  1.864439244455E-09  1.446333068985E-09  1.118938420600E-09
  8.632726600212E-10  6.641706277590E-10  5.095501975645E-10  3.898122368905E-10
  2.973517520217E-10  2.261607448199E-10  1.715065000859E-10  1.296717317945E-10
  9.774530879129E-11  7.345421405780E-11  5.502901737001E-11  4.109650376496E-11
  3.059423862333E-11  2.270279822211E-11  1.679218129446E-11  1.237957017870E-11
  9.096136699603E-12  6.271221614764E-12  4.584462193823E-12  3.339744590530E-12
  2.424425349782E-12  1.753706611505E-12  1.263977234389E-12  9.076891584752E-13
  6.494291617503E-13  4.629180182366E-13  3.287265066119E-13  2.325434654135E-13
  1.638673849451E-13  1.150217092445E-13  8.041660148259E-14  5.599763159280E-14
  3.883567288791E-14  2.682305066934E-14  1.844931875248E-14  1.263646890371E-14
  8.618317827641E-15  5.852595717206E-15  3.957139775877E-15  2.663780464354E-15
  1.785158123445E-15  1.190948393787E-15  7.909038200042E-16  5.228114383412E-16
  3.439799080993E-16  2.252492102677E-16  1.467949127016E-16  9.520314216584E-17
  6.144107827301E-17  3.945554597631E-17  2.521001311933E-17  1.602609311293E-17
  1.013550285949E-17  6.376746322626E-18  3.990818796853E-18  2.484313537816E-18
  1.538170571571E-18  9.471703976110E-19  5.800277224162E-19  3.532137068242E-19
  2.138776017076E-19  1.287663739971E-19  7.707599092389E-20  4.586537835318E-20
  2.713122552697E-20  1.595296414971E-20  9.323296794084E-21  5.415293177334E-21
  3.125838753310E-21  1.792960215278E-21  1.021882670378E-21  5.786614265241E-22
  0.000000000000E+00  0.000000000000E+00  0.000000000000E+00  0.000000000000E+00
  0.000000000000E+00  0.000000000000E+00  0.000000000000E+00  0.000000000000E+00
  0.000000000000E+00  0.000000000000E+00  0.000000000000E+00  0.000000000000E+00
  0.000000000000E+00  0.000000000000E+00  0.000000000000E+00  0.000000000000E+00
  0.000000000000E+00  0.000000000000E+00  0.000000000000E+00  0.000000000000E+00
  0.000000000000E+00
</data>
</radfunc>
</valence-charge>
<pseudocore-charge matching-radius="0.792441509834"
 number-of-continuous-derivatives="4">
<annotation model-charge-form="Teter function with specified parameters" />
<radfunc>
<data npts="275">
  9.901465780074E+01  9.900791586682E+01  9.898776211969E+01  9.895413927786E+01
  9.890739309407E+01  9.884592871632E+01  9.876759622888E+01  9.867790293862E+01
  9.856651474599E+01  9.844609483527E+01  9.831037418409E+01  9.816287102405E+01
  9.798462712380E+01  9.779849563850E+01  9.761258152506E+01  9.739846748811E+01
  9.715194896914E+01  9.691831507378E+01  9.665571199627E+01  9.636063749217E+01
  9.602919003565E+01  9.573494297990E+01  9.541220815925E+01  9.505833466346E+01
  9.467044738579E+01  9.424543287167E+01  9.377992537415E+01  9.340204703329E+01
  9.299772022622E+01  9.256522004018E+01  9.210272848130E+01  9.160833255693E+01
  9.108002289508E+01  9.051569302562E+01  8.991313946536E+01  8.927006276885E+01
  8.858406972769E+01  8.785267692425E+01  8.733859454608E+01  8.680241389323E+01
  8.624333998149E+01  8.566056485451E+01  8.505326915448E+01  8.442062393531E+01
  8.376179273907E+01  8.307593395763E+01  8.236220350196E+01  8.161975780267E+01
  8.084775716559E+01  8.004536950688E+01  7.921177449216E+01  7.834616810433E+01
  7.744776766383E+01  7.651581732497E+01  7.554959407000E+01  7.454841422127E+01
  7.351164048910E+01  7.243868957003E+01  7.132904030595E+01  7.018224240992E+01
  6.899792575842E+01  6.777581024281E+01  6.651571616446E+01  6.521757514833E+01
  6.388144153847E+01  6.250750422657E+01  6.109609884968E+01  6.037649371780E+01
  5.964772027768E+01  5.890986734875E+01  5.816303529253E+01  5.740733641087E+01
  5.664289534210E+01  5.586984945358E+01  5.508834922952E+01  5.429855865227E+01
  5.350065557579E+01  5.269483208921E+01  5.188129486904E+01  5.106026551782E+01
  5.023198088732E+01  4.939669338413E+01  4.855467125535E+01  4.770619885203E+01
  4.685157686800E+01  4.599112255134E+01  4.512516988608E+01  4.425406974109E+01
  4.337818998362E+01  4.249791555433E+01  4.161364850099E+01  4.072580796767E+01
  3.983483013644E+01  3.894116811837E+01  3.804529179067E+01  3.714768757683E+01
  3.624885816667E+01  3.534932217300E+01  3.444961372203E+01  3.355028197445E+01
  3.265189057421E+01  3.175501702251E+01  3.086025197411E+01  2.996819845378E+01
  2.907947099072E+01  2.819469466892E+01  2.731450409208E+01  2.643954226169E+01
  2.557045936754E+01  2.470791149013E+01  2.385255921521E+01  2.300506616084E+01
  2.216609741824E+01  2.133631790818E+01  2.051639065530E+01  1.970697498343E+01
  1.890872463586E+01  1.812228582519E+01  1.734829521812E+01  1.658737786156E+01
  1.584014505735E+01  1.510719219350E+01  1.438909654110E+01  1.368641502686E+01
  1.299968199209E+01  1.232940694998E+01  1.167607235398E+01  1.104013139070E+01
  1.042200581193E+01  9.822083820886E+00  9.240718028644E+00  8.678223497312E+00
  8.134875886938E+00  7.610909723655E+00  7.106516806765E+00  6.621844772588E+00
  6.156995832844E+00  5.712025705091E+00  5.286942752275E+00  4.881707347808E+00
  4.496231481657E+00  4.130378621801E+00  3.783963844010E+00  3.456754241231E+00
  3.148469621962E+00  2.858783504786E+00  2.587324413802E+00  2.333677477005E+00
  2.097386326705E+00  1.877955297967E+00  1.674851917691E+00  1.487509673472E+00
  1.315331047769E+00  1.157690799219E+00  1.013939469255E+00  8.834070884782E-01
  7.654070537077E-01  6.592401431877E-01  5.641986343035E-01  4.795704852816E-01
  4.046435398996E-01  3.387097122341E-01  2.810691070226E-01  2.310340303723E-01
  1.879328453860E-01  1.511136278437E-01  1.199475784288E-01  9.383215014866E-02
  7.219385259102E-02  5.449069847901E-02  4.021426261703E-02  2.889132871602E-02
  2.008510568516E-02  1.339600168859E-02  8.461951478653E-03  4.958300095928E-03
  2.597253815186E-03  1.126917039155E-03  3.299415087991E-04  2.182150768196E-05
  4.887548194867E-05  2.859604704188E-04  6.339707427586E-04  1.017175894910E-03
  1.380456190387E-03  1.686494035607E-03  1.912980047922E-03  2.049890173202E-03
  2.096886744003E-03  2.060891303689E-03  1.953870578700E-03  1.790869340517E-03
  1.588315296276E-03  1.362611867204E-03  1.129025082962E-03  9.008611927678E-04
  6.889223414687E-04  5.012191499982E-04  3.429116257738E-04  2.164438227783E-04
  1.218333311311E-04  5.707418708540E-05  1.861125514474E-05  1.845545904817E-06
  1.633195313558E-06  1.274574027108E-05  3.026558363849E-05  4.989776897291E-05
  6.818694030749E-05  8.263616793614E-05  9.173169472278E-05  9.488414332487E-05
  9.230192738372E-05  8.481622441752E-05  7.367870642132E-05  6.035323183408E-05
  4.632096758445E-05  3.291515899817E-05  2.119734783888E-05  1.188169912055E-05
  5.308737148526E-06  1.464723868195E-06  3.861437989006E-08  5.053873267159E-07
  2.222838264707E-06  4.528753615314E-06  6.826694059318E-06  8.651187607669E-06
  9.706601857188E-06  9.877870833617E-06  9.215089364783E-06  7.897271480178E-06
  6.182895560571E-06  4.355961116762E-06  2.676067506167E-06  1.339589237984E-06
  4.566369914608E-07  4.556543070271E-08  0.000000000000E+00  0.000000000000E+00
  0.000000000000E+00  0.000000000000E+00  0.000000000000E+00  0.000000000000E+00
  0.000000000000E+00  0.000000000000E+00  0.000000000000E+00  0.000000000000E+00
  0.000000000000E+00  0.000000000000E+00  0.000000000000E+00  0.000000000000E+00
  0.000000000000E+00  0.000000000000E+00  0.000000000000E+00  0.000000000000E+00
  0.000000000000E+00  0.000000000000E+00  0.000000000000E+00  0.000000000000E+00
  0.000000000000E+00  0.000000000000E+00  0.000000000000E+00  0.000000000000E+00
  0.000000000000E+00  0.000000000000E+00  0.000000000000E+00  0.000000000000E+00
  0.000000000000E+00  0.000000000000E+00  0.000000000000E+00  0.000000000000E+00
  0.000000000000E+00  0.000000000000E+00  0.000000000000E+00
</data>
</radfunc>
</pseudocore-charge>
<semilocal-potentials set="scalar_relativistic">
<slps n="5" l="s" rc="1.45604016253" eref="-3.99749918226">
<radfunc>
<data npts="275">
 -6.560267103025E+00 -6.563802012861E+00 -6.574363787184E+00 -6.591967020923E+00
 -6.616405402119E+00 -6.648475462705E+00 -6.689243629281E+00 -6.735783181005E+00
 -6.793370594128E+00 -6.855368253001E+00 -6.924922735120E+00 -7.000132796617E+00
 -7.090489370185E+00 -7.184233150170E+00 -7.277249849165E+00 -7.383618266279E+00
 -7.505091512485E+00 -7.619245899927E+00 -7.746441850398E+00 -7.887978746881E+00
 -8.045237391632E+00 -8.183339291061E+00 -8.333207028336E+00 -8.495635069766E+00
 -8.671431465824E+00 -8.861409445574E+00 -9.066377173097E+00 -9.230416785782E+00
 -9.403656330826E+00 -9.586404674107E+00 -9.778952591423E+00 -9.981568114195E+00
 -1.019449149304E+01 -1.041792980112E+01 -1.065205121032E+01 -1.089697898566E+01
 -1.115278525611E+01 -1.141948463363E+01 -1.160331439957E+01 -1.179193331967E+01
 -1.198529491549E+01 -1.218333715715E+01 -1.238598167582E+01 -1.259313300962E+01
 -1.280467789061E+01 -1.302048458005E+01 -1.324040225951E+01 -1.346426048475E+01
 -1.369186870924E+01 -1.392301588340E+01 -1.415747013498E+01 -1.439497853545E+01
 -1.463526695600E+01 -1.487804001571E+01 -1.512298112357E+01 -1.536975261435E+01
 -1.561799597719E+01 -1.586733217444E+01 -1.611736204672E+01 -1.636766679914E+01
 -1.661780856180E+01 -1.686733101730E+01 -1.711576008616E+01 -1.736260466082E+01
 -1.760735737811E+01 -1.784949541956E+01 -1.808848132931E+01 -1.820662048048E+01
 -1.832376383921E+01 -1.843984047384E+01 -1.855477869179E+01 -1.866850606456E+01
 -1.878094945240E+01 -1.889203502860E+01 -1.900168830345E+01 -1.910983414768E+01
 -1.921639681549E+01 -1.932129996726E+01 -1.942446669162E+01 -1.952581952733E+01
 -1.962528048466E+01 -1.972277106648E+01 -1.981821228908E+01 -1.991152470284E+01
 -2.000262841269E+01 -2.009144309873E+01 -2.017788803676E+01 -2.026188211923E+01
 -2.034334387648E+01 -2.042219149858E+01 -2.049834285782E+01 -2.057171553223E+01
 -2.064222683010E+01 -2.070979381600E+01 -2.077433333818E+01 -2.083576205801E+01
 -2.089399648137E+01 -2.094895299247E+01 -2.100054789036E+01 -2.104869742835E+01
 -2.109331785675E+01 -2.113432546923E+01 -2.117163665309E+01 -2.120516794386E+01
 -2.123483608451E+01 -2.126055808967E+01 -2.128225131526E+01 -2.129983353383E+01
 -2.131322301603E+01 -2.132233861863E+01 -2.132709987938E+01 -2.132742711922E+01
 -2.132324155219E+01 -2.131446540334E+01 -2.130102203529E+01 -2.128283608362E+01
 -2.125983360158E+01 -2.123194221470E+01 -2.119909128554E+01 -2.116121208921E+01
 -2.111823800014E+01 -2.107010469061E+01 -2.101675034166E+01 -2.095811586708E+01
 -2.089414515117E+01 -2.082478530116E+01 -2.074998691527E+01 -2.066970436743E+01
 -2.058389611022E+01 -2.049252499730E+01 -2.039555862741E+01 -2.029296971197E+01
 -2.018473646900E+01 -2.007084304632E+01 -1.995127997785E+01 -1.982604467722E+01
 -1.969514197410E+01 -1.955858469913E+01 -1.941639432500E+01 -1.926860167202E+01
 -1.911524768843E+01 -1.895638431717E+01 -1.879207546289E+01 -1.862239807515E+01
 -1.844744336645E+01 -1.826731818601E+01 -1.808214657392E+01 -1.789207152277E+01
 -1.769725697796E+01 -1.749789011090E+01 -1.729418390317E+01 -1.708638008263E+01
 -1.687475245565E+01 -1.665961068134E+01 -1.644130453469E+01 -1.622022870440E+01
 -1.599682816801E+01 -1.577160418000E+01 -1.554512089799E+01 -1.531801265584E+01
 -1.509099187016E+01 -1.486485753650E+01 -1.464050423305E+01 -1.441893150190E+01
 -1.420125342053E+01 -1.398870811102E+01 -1.378266686213E+01 -1.358464246603E+01