<?xml version="1.0" encoding="UTF-8" ?>
<psml version="1.1" energy_unit="hartree" length_unit="bohr"
 uuid="e7fc9fb0-23d1-11e8-4875-d3c46ddf1031"
 xmlns="http://esl.cecam.org/PSML/ns/1.1">
<provenance creator="ONCVPSP-3.3.0+psml-3.3.0-73 (scalar-relativistic)"
 date="2018-03-09">
<annotation action="semilocal-pseudopotential-generation"
 action-cont="projectors-generation" />
<input-file name="oncvpsp-input">
<![CDATA[# atsym z nc nv iexc psfile
B 5 1 2 -001012 upf
# n l f
1 0 2.0
2 0 2.0
2 1 1.0
# lmax
1
# l rc ep ncon nbas qcut
0 1.2 0.0 4 8 7.6
1 1.2 0.0 4 8 9.2
# lloc lpopt rc5 dvloc0
4 5 1.2 0.0
# l nproj debl
0 2 8.5
1 2 1.5
# icmod fcfact rcfact
3 2.9 1.45
# epsh1 epsh2 depsh
-12.0 12.0 0.02
# rlmax drl
6.0 0.01
 0
]]>
</input-file>
</provenance>
<pseudo-atom-spec atomic-label="B" atomic-number="5" z-pseudo="3"
 flavor="Hamann&apos;s oncvpsp" relativity="scalar" spin-dft="no"
 core-corrections="yes">
<annotation pseudo-energy="-2.59566758021" />
<exchange-correlation>
<annotation oncvpsp-xc-code="-1012" oncvpsp-xc-type="libxc-interface" />
<libxc-info number-of-functionals="2">
<functional name="Slater exchange (LDA)" type="exchange" id="1" />
<functional name="Perdew &amp; Wang (LDA)" type="correlation" id="12" />
</libxc-info>
</exchange-correlation>
<valence-configuration total-valence-charge="3">
<shell n="2" l="s" occupation="2" />
<shell n="2" l="p" occupation="1" />
</valence-configuration>
</pseudo-atom-spec>
<grid npts="457">
<annotation type="sampled from oncvpsp log grid"
 recipe="r(i:1..N) = r1*exp(a*(i-1)) + r=0; resampled"
 recipe-cont="r1: scale; a: step" scale="0.100000000000E-03"
 step="0.119285708653E-01" delta="0.500000000000E-02" rmax="44.3362164955" />
<grid-data>
  0.000000000000E+00  5.002741943459E-03  1.011249544414E-02  1.517035570920E-02
  2.019891604953E-02  2.533715228865E-02  3.066521414240E-02  3.580903885730E-02
  4.082989865078E-02  4.600271110220E-02  5.121628098796E-02  5.634457916426E-02
  6.198637503461E-02  6.738447158402E-02  7.325266251047E-02  7.868763446835E-02
  8.452585347789E-02  8.972059130699E-02  9.523458413327E-02  1.010874525337E-01
  1.073000229144E-01  1.125438751168E-01  1.180439992675E-01  1.238129196156E-01
  1.298637724820E-01  1.362103361718E-01  1.428670623488E-01  1.480722420386E-01
  1.534670658293E-01  1.590584431627E-01  1.648535352170E-01  1.708597640790E-01
  1.770848222496E-01  1.835366824963E-01  1.902236080644E-01  1.971541632598E-01
  2.043372244181E-01  2.117819912728E-01  2.168952556701E-01  2.221319747230E-01
  2.274951291207E-01  2.329877715182E-01  2.386130282737E-01  2.443741012284E-01
  2.502742695284E-01  2.563168914919E-01  2.625054065201E-01  2.688433370551E-01
  2.753342905850E-01  2.819819616969E-01  2.887901341801E-01  2.957626831797E-01
  3.029035774024E-01  3.102168813752E-01  3.177067577591E-01  3.253774697185E-01
  3.332333833474E-01  3.412789701549E-01  3.495188096103E-01  3.579575917496E-01
  3.666001198448E-01  3.754513131383E-01  3.845162096427E-01  3.937999690083E-01
  4.033078754601E-01  4.130453408052E-01  4.230179075136E-01  4.280941224037E-01
  4.332312518726E-01  4.384300268950E-01  4.436911872178E-01  4.490154814644E-01
  4.544036672420E-01  4.598565112489E-01  4.653747893839E-01  4.709592868565E-01
  4.766107982987E-01  4.823301278783E-01  4.881180894129E-01  4.939755064858E-01
  4.999032125636E-01  5.059020511144E-01  5.119728757278E-01  5.181165502365E-01
  5.243339488394E-01  5.306259562254E-01  5.369934677001E-01  5.434373893125E-01
  5.499586379843E-01  5.565581416401E-01  5.632368393398E-01  5.699956814119E-01
  5.768356295888E-01  5.837576571439E-01  5.907627490296E-01  5.978519020179E-01
  6.050261248422E-01  6.122864383403E-01  6.196338756004E-01  6.270694821076E-01
  6.345943158928E-01  6.422094476836E-01  6.499159610558E-01  6.577149525884E-01
  6.656075320195E-01  6.735948224037E-01  6.816779602726E-01  6.898580957958E-01
  6.981363929454E-01  7.065140296607E-01  7.149921980167E-01  7.235721043929E-01
  7.322549696456E-01  7.410420292813E-01  7.499345336327E-01  7.589337480363E-01
  7.680409530127E-01  7.772574444489E-01  7.865845337823E-01  7.960235481877E-01
  8.055758307659E-01  8.152427407351E-01  8.250256536239E-01  8.349259614674E-01
  8.449450730050E-01  8.550844138811E-01  8.653454268477E-01  8.757295719698E-01
  8.862383268335E-01  8.968731867555E-01  9.076356649965E-01  9.185272929765E-01
  9.295496204922E-01  9.407042159381E-01  9.519926665294E-01  9.634165785277E-01
  9.749775774701E-01  9.866773083997E-01  9.985174361005E-01  1.010499645334E+00
  1.022625641078E+00  1.034897148771E+00  1.047315914556E+00  1.059883705531E+00
  1.072602309997E+00  1.085473537717E+00  1.098499220169E+00  1.111681210812E+00
  1.125021385341E+00  1.138521641965E+00  1.152183901669E+00  1.166010108489E+00
  1.180002229791E+00  1.194162256548E+00  1.208492203627E+00  1.222994110070E+00
  1.237670039391E+00  1.252522079864E+00  1.267552344822E+00  1.282762972960E+00
  1.298156128636E+00  1.313734002179E+00  1.329498810206E+00  1.345452795928E+00
  1.361598229479E+00  1.377937408233E+00  1.394472657132E+00  1.411206329017E+00
  1.428140804965E+00  1.445278494625E+00  1.462621836561E+00  1.480173298599E+00
  1.497935378182E+00  1.515910602721E+00  1.534101529953E+00  1.552510748313E+00
  1.571140877292E+00  1.589994567820E+00  1.609074502634E+00  1.628383396665E+00
  1.647923997425E+00  1.667699085395E+00  1.687711474419E+00  1.707964012112E+00
  1.728459580258E+00  1.749201095221E+00  1.770191508363E+00  1.791433806464E+00
  1.812931012141E+00  1.834686184287E+00  1.856702418498E+00  1.878982847520E+00
  1.901530641691E+00  1.924349009391E+00  1.947441197504E+00  1.970810491874E+00
  1.994460217776E+00  2.018393740389E+00  2.042614465274E+00  2.067125838857E+00
  2.091931348924E+00  2.117034525111E+00  2.142438939412E+00  2.168148206685E+00
  2.194165985165E+00  2.220495976987E+00  2.247141928711E+00  2.274107631856E+00
  2.301396923438E+00  2.329013686519E+00  2.356961850757E+00  2.385245392967E+00
  2.413868337682E+00  2.442834757734E+00  2.472148774827E+00  2.501814560125E+00
  2.531836334847E+00  2.562218370865E+00  2.592964991315E+00  2.624080571211E+00
  2.655569538065E+00  2.687436372522E+00  2.719685608992E+00  2.752321836300E+00
  2.785349698336E+00  2.818773894716E+00  2.852599181453E+00  2.886830371630E+00
  2.921472336090E+00  2.956530004123E+00  2.992008364172E+00  3.027912464542E+00
  3.064247414117E+00  3.101018383086E+00  3.138230603683E+00  3.175889370927E+00
  3.214000043378E+00  3.252568043899E+00  3.291598860426E+00  3.331098046751E+00
  3.371071223312E+00  3.411524077992E+00  3.452462366928E+00  3.493891915331E+00
  3.535818618315E+00  3.578248441734E+00  3.621187423035E+00  3.664641672112E+00
  3.708617372177E+00  3.753120780643E+00  3.798158230011E+00  3.843736128771E+00
  3.889860962316E+00  3.936539293864E+00  3.983777765390E+00  4.031583098575E+00
  4.079962095758E+00  4.128921640907E+00  4.178468700598E+00  4.228610325005E+00
  4.279353648905E+00  4.330705892692E+00  4.382674363404E+00  4.435266455765E+00
  4.488489653234E+00  4.542351529073E+00  4.596859747422E+00  4.652022064391E+00
  4.707846329164E+00  4.764340485114E+00  4.821512570935E+00  4.879370721786E+00
  4.937923170448E+00  4.997178248493E+00  5.057144387475E+00  5.117830120125E+00
  5.179244081566E+00  5.241395010545E+00  5.304291750672E+00  5.367943251680E+00
  5.432358570700E+00  5.497546873548E+00  5.563517436031E+00  5.630279645263E+00
  5.697843001006E+00  5.766217117018E+00  5.835411722423E+00  5.905436663092E+00
  5.976301903049E+00  6.048017525885E+00  6.120593736196E+00  6.194040861030E+00
  6.268369351363E+00  6.343589783579E+00  6.419712860982E+00  6.496749415314E+00
  6.574710408298E+00  6.653606933197E+00  6.733450216396E+00  6.814251618992E+00
  6.896022638420E+00  6.978774910081E+00  7.062520209002E+00  7.147270451510E+00
  7.233037696928E+00  7.319834149291E+00  7.407672159083E+00  7.496564224992E+00
  7.586522995692E+00  7.677561271640E+00  7.769692006900E+00  7.862928310983E+00
  7.957283450714E+00  8.052770852123E+00  8.149404102349E+00  8.247196951577E+00
  8.346163314996E+00  8.446317274776E+00  8.547673082073E+00  8.650245159058E+00
  8.754048100966E+00  8.859096678178E+00  8.965405838316E+00  9.072990708376E+00
  9.181866596876E+00  9.292048996039E+00  9.403553583991E+00  9.516396226999E+00
  9.630592981723E+00  9.746160097504E+00  9.863114018674E+00  9.981471386898E+00
  1.010124904354E+01  1.022246403206E+01  1.034513360045E+01  1.046927520365E+01
  1.059490650610E+01  1.072204538417E+01  1.085070992878E+01  1.098091844793E+01
  1.111268946930E+01  1.124604174293E+01  1.138099424385E+01  1.151756617477E+01
  1.165577696887E+01  1.179564629250E+01  1.193719404801E+01  1.208044037658E+01
  1.222540566110E+01  1.237211052904E+01  1.252057585538E+01  1.267082276565E+01
  1.282287263884E+01  1.297674711050E+01  1.313246807583E+01  1.329005769274E+01
  1.344953838505E+01  1.361093284567E+01  1.377426403982E+01  1.393955520830E+01
  1.410682987080E+01  1.427611182925E+01  1.444742517120E+01  1.462079427325E+01
  1.479624380453E+01  1.497379873019E+01  1.515348431495E+01  1.533532612673E+01
  1.551935004025E+01  1.570558224073E+01  1.589404922762E+01  1.608477781835E+01
  1.627779515217E+01  1.647312869400E+01  1.667080623833E+01  1.687085591319E+01
  1.707330618414E+01  1.727818585835E+01  1.748552408865E+01  1.769535037772E+01
  1.790769458225E+01  1.812258691724E+01  1.834005796024E+01  1.856013865577E+01
  1.878286031964E+01  1.900825464347E+01  1.923635369919E+01  1.946718994358E+01
  1.970079622291E+01  1.993720577758E+01  2.017645224691E+01  2.041856967388E+01
  2.066359250996E+01  2.091155562008E+01  2.116249428752E+01  2.141644421897E+01
  2.167344154960E+01  2.193352284820E+01  2.219672512237E+01  2.246308582384E+01
  2.273264285373E+01  2.300543456797E+01  2.328149978279E+01  2.356087778018E+01
  2.384360831355E+01  2.412973161331E+01  2.441928839267E+01  2.471231985338E+01
  2.500886769162E+01  2.530897410392E+01  2.561268179317E+01  2.592003397469E+01
  2.623107438238E+01  2.654584727497E+01  2.686439744227E+01  2.718677021158E+01
  2.751301145412E+01  2.784316759156E+01  2.817728560266E+01  2.851541302990E+01
  2.885759798625E+01  2.920388916209E+01  2.955433583203E+01  2.990898786202E+01
  3.026789571636E+01  3.063111046496E+01  3.099868379054E+01  3.137066799603E+01
  3.174711601198E+01  3.212808140412E+01  3.251361838097E+01  3.290378180154E+01
  3.329862718316E+01  3.369821070936E+01  3.410258923787E+01  3.451182030873E+01
  3.492596215243E+01  3.534507369826E+01  3.576921458264E+01  3.619844515763E+01
  3.663282649952E+01  3.707242041752E+01  3.751728946253E+01  3.796749693608E+01
  3.842310689931E+01  3.888418418210E+01  3.935079439229E+01  3.982300392499E+01
  4.030087997209E+01  4.078449053176E+01  4.127390441814E+01  4.176919127116E+01
  4.227042156641E+01  4.277766662521E+01  4.329099862471E+01  4.381049060821E+01
  4.433621649551E+01
</grid-data>
</grid>
<valence-charge total-charge="3" is-unscreening-charge="yes"
 rescaled-to-z-pseudo="no">
<radfunc>
<data npts="457">
  1.689384910013E-01  1.690450260384E-01  1.693737087251E-01  1.699176216492E-01
  1.706735324437E-01  1.716669185957E-01  1.729320611068E-01  1.743794993729E-01
  1.760053832274E-01  1.778992744478E-01  1.800312431597E-01  1.823452155266E-01
  1.851371507767E-01  1.880476242721E-01  1.914738320679E-01  1.948878162287E-01
  1.988094602285E-01  2.025172178796E-01  2.066743507644E-01  2.113324260955E-01
  2.165481516111E-01  2.211638134846E-01  2.262104685469E-01  2.317249441669E-01
  2.377464998821E-01  2.443168318078E-01  2.514800353392E-01  2.572693426915E-01
  2.634385817260E-01  2.700087673252E-01  2.770014785937E-01  2.844387731647E-01
  2.923430813779E-01  3.007370780042E-01  3.096435291571E-01  3.190851120505E-01
  3.290842053722E-01  3.396626482488E-01  3.470472298536E-01  3.547046342090E-01
  3.626405622787E-01  3.708604020699E-01  3.793691781176E-01  3.881714980475E-01
  3.972714963577E-01  4.066727756225E-01  4.163783453754E-01  4.263905590032E-01
  4.367110490475E-01  4.473406613878E-01  4.582793888499E-01  4.695263048573E-01
  4.810794978104E-01  4.929360069312E-01  5.050917603614E-01  5.175415163239E-01
  5.302788081589E-01  5.432958940207E-01  5.565837119526E-01  5.701318409528E-01
  5.839284684864E-01  5.979603646907E-01  6.122128632581E-01  6.266698486609E-01
  6.413137490141E-01  6.561255334605E-01  6.710847125270E-01  6.786127735876E-01
  6.861693394572E-01  6.937514390839E-01  7.013560101183E-01  7.089798986367E-01
  7.166198587279E-01  7.242725519204E-01  7.319345464268E-01  7.396023161831E-01
  7.472722396624E-01  7.549405984460E-01  7.626035755366E-01  7.702572534039E-01
  7.778976117565E-01  7.855205250416E-01  7.931217596777E-01  8.006969710375E-01
  8.082417002012E-01  8.157513705158E-01  8.232212839998E-01  8.306466176493E-01
  8.380224197082E-01  8.453436059794E-01  8.526049562641E-01  8.598011110291E-01
  8.669265684115E-01  8.739756816813E-01  8.809426572913E-01  8.878215536498E-01
  8.946062807579E-01  9.012906008531E-01  9.078681302036E-01  9.143323421878E-01
  9.206765717875E-01  9.268940216088E-01  9.329777695220E-01  9.389207779909E-01
  9.447159051259E-01  9.503559174600E-01  9.558335044024E-01  9.611412942739E-01
  9.662718717728E-01  9.712177966604E-01  9.759716233898E-01  9.805259213369E-01
  9.848732952254E-01  9.890064052696E-01  9.929179865026E-01  9.966008666971E-01
  1.000047982247E+00  1.003252391345E+00  1.006207283773E+00  1.008905986646E+00
  1.011341965455E+00  1.013508819849E+00  1.015400273663E+00  1.017010158832E+00
  1.018332393014E+00  1.019360950925E+00  1.020089829641E+00  1.020513008411E+00
  1.020624403814E+00  1.020417821469E+00  1.019886905838E+00  1.019025090067E+00
  1.017825548174E+00  1.016281152259E+00  1.014384437757E+00  1.012127580026E+00
  1.009502385788E+00  1.006500303044E+00  1.003112453119E+00  9.993296882963E-01
  9.951426782618E-01  9.905420280251E-01  9.855184293382E-01  9.800628467024E-01
  9.741667379579E-01  9.678223081283E-01  9.610227937096E-01  9.537627729619E-01
  9.460384960498E-01  9.378482271521E-01  9.291925890034E-01  9.200748988455E-01
  9.105014835630E-01  9.004819609635E-01  8.900294738563E-01  8.791606229958E-01
  8.678943163801E-01  8.562499665029E-01  8.442471252485E-01  8.319057692518E-01
  8.192460985404E-01  8.062885149238E-01  7.930535720059E-01  7.795619282445E-01
  7.658343005043E-01  7.518914181990E-01  7.377539781574E-01  7.234426003360E-01
  7.089777844988E-01  6.943798679798E-01  6.796689846407E-01  6.648650251303E-01
  6.499875985450E-01  6.350559955880E-01  6.200891533125E-01  6.051056215337E-01
  5.901235309813E-01  5.751605632621E-01  5.602339226894E-01  5.453603100338E-01
  5.305558982364E-01  5.158363101218E-01  5.012165981366E-01  4.867112261338E-01
  4.723340532147E-01  4.580983196290E-01  4.440166347316E-01  4.301009669808E-01
  4.163626359599E-01  4.028123063941E-01  3.894599841284E-01  3.763150140261E-01
  3.633860797416E-01  3.506812053120E-01  3.382077585119E-01  3.259724559058E-01
  3.139813695307E-01  3.022399351350E-01  2.907529618995E-01  2.795246435585E-01
  2.685585708398E-01  2.578577451385E-01  2.474245933363E-01  2.372609836804E-01
  2.273682426300E-01  2.177471725817E-01  2.083980703838E-01  1.993207465484E-01
  1.905145450728E-01  1.819783637820E-01  1.737106751042E-01  1.657095471958E-01
  1.579726653301E-01  1.504973534722E-01  1.432805959577E-01  1.363190592020E-01
  1.296091133694E-01  1.231468539259E-01  1.169281230173E-01  1.109485306054E-01
  1.052034753049E-01  9.968816486527E-02  9.439763624660E-02  8.932677524099E-02
  8.447033559652E-02  7.982295760339E-02  7.537918610629E-02  7.113348791076E-02
  6.708026855480E-02  6.321388842218E-02  5.952867817391E-02  5.601895348286E-02
  5.267902905593E-02  4.950323193358E-02  4.648591405894E-02  4.362146411223E-02
  4.090431860889E-02  3.832897226288E-02  3.588998761908E-02  3.358200396140E-02
  3.139974550546E-02  2.933802888709E-02  2.739176995971E-02  2.555598991571E-02
  2.382582074875E-02  2.219651007529E-02  2.066342533531E-02  1.922205739315E-02
  1.786802356099E-02  1.659707006783E-02  1.540507399840E-02  1.428804472635E-02
  1.324212486729E-02  1.226359077714E-02  1.134885262189E-02  1.049445404487E-02
  9.697071457691E-03  8.953512980902E-03  8.260717060436E-03  7.615750785354E-03
  7.015807932246E-03  6.458206761090E-03  5.940387586858E-03  5.459910150545E-03
  5.014450812599E-03  4.601799590998E-03  4.219857065420E-03  3.866631168105E-03
  3.540233881096E-03  3.238877858662E-03  2.960872992699E-03  2.704622937977E-03
  2.468621613072E-03  2.251449691827E-03  2.051771099174E-03  1.868329524151E-03
  1.699944961908E-03  1.545510295556E-03  1.403987927665E-03  1.274406470325E-03
  1.155857501693E-03  1.047492396075E-03  9.485192336849E-04  8.581997954033E-04
  7.758466470221E-04  7.008203167080E-04  6.325265686750E-04  5.704137753681E-04
  5.139703898113E-04  4.627225191666E-04  4.162315999894E-04  3.740921751479E-04
  3.359297718972E-04  3.013988801707E-04  2.701810297581E-04  2.419829646951E-04
  2.165349128795E-04  1.935889486602E-04  1.729174459141E-04  1.543116189283E-04
  1.375801482435E-04  1.225478884815E-04  1.090546550802E-04  9.695408678246E-05
  8.611258067969E-05  7.640829658375E-05  6.773022749671E-05  5.997733296398E-05
  5.305773212822E-05  4.688795334845E-05  4.139223731022E-05  3.650189062449E-05
  3.215468699477E-05  2.829431312269E-05  2.486985661825E-05  2.183533328338E-05
  1.914925124323E-05  1.677420950785E-05  1.467652865749E-05  1.282591145547E-05
  1.119513130295E-05  9.759746560204E-06  8.497838866477E-06  7.389773696847E-06
  6.417981497533E-06  5.566757841354E-06  4.822081141856E-06  4.171446557801E-06
  3.603714809093E-06  3.108974710678E-06  2.678418312357E-06  2.304227609854E-06
  1.979471865795E-06  1.698014648604E-06  1.454429762701E-06  1.243925304970E-06
  1.062275140243E-06  9.057571427921E-07  7.710976015546E-07  6.554212342264E-07
  5.562062996087E-07  4.712443388195E-07  3.986041143389E-07  3.365993515112E-07
  2.837599202183E-07  2.388061251280E-07  2.006258013386E-07  1.682539385414E-07
  1.408545811253E-07  1.177047740942E-07  9.818034536525E-08  8.174333409724E-08
  6.793089225328E-08  5.634550275372E-08  4.664637240463E-08  3.854187139711E-08
  3.178290364393E-08  2.615710363575E-08  2.148376593444E-08  1.760942294821E-08
  1.440399531882E-08  1.175744715747E-08  9.576885553296E-09  7.784050300100E-09
  6.313145696365E-09  5.108971618113E-09  4.125315889450E-09  3.323574324129E-09
  2.671568722694E-09  2.142536620794E-09  1.714269729576E-09  1.368380820985E-09
  1.089681319091E-09  8.656540911976E-10  6.860079152598E-10  5.423018568426E-10
  4.276293417377E-10  3.363530796373E-10  2.638831987590E-10  2.064920081806E-10
  1.611597296169E-10  1.254463478224E-10  9.738543181566E-11  7.539638956616E-11
  5.821214742207E-11  4.481970209592E-11  3.441138620002E-11  2.634502597914E-11
  2.011145903637E-11  1.530812674410E-11  1.161766623437E-11  8.790605296802E-12
  6.631414525906E-12  4.987298481429E-12  3.739214811690E-12  2.794700176368E-12
  2.082156948224E-12  1.546317293005E-12  1.144653243749E-12  8.445444557924E-13
  6.210508745836E-13  4.551667876513E-13  3.324567036265E-13  2.419930878524E-13
  1.755319334894E-13  1.268750898771E-13  9.137873646364E-14  6.557554215018E-14
  4.688691545552E-14  3.340050249528E-14  2.370426010199E-14  1.675915370066E-14
  1.180347644919E-14  8.280937625557E-15  5.786819803446E-15  4.027819040529E-15
  2.792206846950E-15  1.927747802525E-15  1.325422706865E-15  9.074752154905E-16
  0.000000000000E+00  0.000000000000E+00  0.000000000000E+00  0.000000000000E+00
  0.000000000000E+00  0.000000000000E+00  0.000000000000E+00  0.000000000000E+00
  0.000000000000E+00  0.000000000000E+00  0.000000000000E+00  0.000000000000E+00
  0.000000000000E+00  0.000000000000E+00  0.000000000000E+00  0.000000000000E+00
  0.000000000000E+00  0.000000000000E+00  0.000000000000E+00  0.000000000000E+00
  0.000000000000E+00  0.000000000000E+00  0.000000000000E+00  0.000000000000E+00
  0.000000000000E+00  0.000000000000E+00  0.000000000000E+00  0.000000000000E+00
  0.000000000000E+00  0.000000000000E+00  0.000000000000E+00  0.000000000000E+00
  0.000000000000E+00  0.000000000000E+00  0.000000000000E+00  0.000000000000E+00
  0.000000000000E+00
</data>
</radfunc>
</valence-charge>
<pseudocore-charge matching-radius="0.732254969646"
 number-of-continuous-derivatives="4">
<annotation model-charge-form="Teter function with specified parameters" />
<radfunc>
<data npts="290">
  2.967455856232E+00  2.967247723622E+00  2.966605508434E+00  2.965542487955E+00
  2.964064590505E+00  2.962121426754E+00  2.959645076776E+00  2.956809698240E+00
  2.953621944592E+00  2.949904954731E+00  2.945715831950E+00  2.941163217739E+00
  2.935662062610E+00  2.929917773389E+00  2.923143003585E+00  2.916378766396E+00
  2.908591763473E+00  2.901212698109E+00  2.892919767478E+00  2.883602783621E+00
  2.873139076436E+00  2.863851335472E+00  2.853666086728E+00  2.842500168546E+00
  2.830263462114E+00  2.816858469765E+00  2.802179904622E+00  2.790267260529E+00
  2.777523581734E+00  2.763895093780E+00  2.749325188239E+00  2.733754376943E+00
  2.717120265050E+00  2.699357547075E+00  2.680398030583E+00  2.660170692849E+00
  2.638601776496E+00  2.615614930788E+00  2.599463831184E+00  2.582623710232E+00
  2.565070309553E+00  2.546779035250E+00  2.527725013173E+00  2.507883152149E+00
  2.487228215839E+00  2.465734903905E+00  2.443377943183E+00  2.420132189589E+00
  2.395972741488E+00  2.370875065261E+00  2.344815133803E+00  2.317769578676E+00
  2.289715856604E+00  2.260632430965E+00  2.230498968876E+00  2.199296554397E+00
  2.167007918269E+00  2.133617684495E+00  2.099112633911E+00  2.063481984720E+00
  2.026717689746E+00  1.988814749897E+00  1.949771543064E+00  1.909590167301E+00
  1.868276796771E+00  1.825842048504E+00  1.782301357509E+00  1.760122517919E+00
  1.737675357234E+00  1.714963329613E+00  1.691990261803E+00  1.668760364865E+00
  1.645278245762E+00  1.621548918728E+00  1.597577816395E+00  1.573370800615E+00
  1.548934172918E+00  1.524274684557E+00  1.499399546074E+00  1.474316436317E+00
  1.449033510848E+00  1.423559409669E+00  1.397903264184E+00  1.372074703334E+00
  1.346083858805E+00  1.319941369245E+00  1.293658383397E+00  1.267246562052E+00
  1.240718078746E+00  1.214085619101E+00  1.187362378716E+00  1.160562059520E+00
  1.133698864484E+00  1.106787490607E+00  1.079843120068E+00  1.052881409473E+00
  1.025918477076E+00  9.989708879122E-01  9.720556367418E-01  9.451901287317E-01
  9.183921577922E-01  8.916798825045E-01  8.650717995728E-01  8.385867147488E-01
  8.122437111817E-01  7.860621151611E-01  7.600614592291E-01  7.342614426539E-01
  7.086818892691E-01  6.833427027010E-01  6.582638190221E-01  6.334651568886E-01
  6.089665652389E-01  5.847877686520E-01  5.609483104870E-01  5.374674939479E-01
  5.143643212447E-01  4.916574310455E-01  4.693650344420E-01  4.475048496775E-01
  4.260940359152E-01  4.051491263520E-01  3.846859610094E-01  3.647196195648E-01
  3.452643546085E-01  3.263335257417E-01  3.079395349530E-01  2.900937637349E-01
  2.728065124219E-01  2.560869422504E-01  2.399430206538E-01  2.243814703188E-01
  2.094077225353E-01  1.950258753736E-01  1.812386572210E-01  1.680473961985E-01
  1.554519959674E-01  1.434509184090E-01  1.320411736351E-01  1.212183177506E-01
  1.109764587443E-01  1.013082708329E-01  9.220501752453E-02  8.365658359943E-02
  7.565151613151E-02  6.817707459034E-02  6.121928997536E-02  5.476303283731E-02
  4.879208994108E-02  4.328924921846E-02  3.823639255045E-02  3.361459580819E-02
  2.940423547048E-02  2.558510102667E-02  2.213651226753E-02  1.903744046641E-02
  1.626663236015E-02  1.380273575641E-02  1.162442552344E-02  9.710528662377E-03
  8.040147122847E-03  6.592777001952E-03  5.348422767345E-03  4.287705167413E-03
  3.391961537997E-03  2.643337285836E-03  2.024867424588E-03  1.520547159803E-03
  1.115390663635E-03  7.954773471334E-04  5.479851254451E-04  3.612103763662E-04
  2.245745119236E-04  1.286173117658E-04  6.497740132682E-05  2.636049158102E-05
  6.496224945458E-06  8.468739892108E-08  2.733843969803E-06  1.088932724396E-05
  2.175815061178E-05  3.322802427571E-05  4.378401800279E-05  5.242433665379E-05
  5.857695029502E-05  6.201874926317E-05  6.279877655418E-05  6.116692768487E-05
  5.750930581905E-05  5.229118326926E-05  4.600825691363E-05  3.914660346720E-05
  3.215145092983E-05  2.540459569977E-05  1.921002193662E-05  1.378703177054E-05
  9.269982177816E-06  5.713555811146E-06  3.102376029402E-06  1.363715771888E-06
  3.820480397813E-07  1.424189203321E-08  1.043182592709E-07  4.968377243701E-07
  1.048188137250E-06  1.635261632057E-06  2.161244733716E-06  2.558477351191E-06
  2.788552195001E-06  2.840012218882E-06  2.724148795408E-06  2.469499140691E-06
  2.115683292389E-06  1.707208116993E-06  1.287802044625E-06  8.957372431782E-07
  5.604569993357E-07  3.006690213198E-07  1.239054657018E-07  2.740296981455E-08
  3.463113335742E-11  2.494165230665E-08  8.247219202559E-08  1.530409624648E-07
  2.195723480941E-07  2.692745378227E-07  2.946006552820E-07  2.933708343735E-07
  2.681414479014E-07  2.250001317208E-07  1.720266250740E-07  1.176829600875E-07
  6.938076067705E-08  3.242256099374E-08  9.437380013015E-09  3.412310470515E-10
  0.000000000000E+00  0.000000000000E+00  0.000000000000E+00  0.000000000000E+00
  0.000000000000E+00  0.000000000000E+00  0.000000000000E+00  0.000000000000E+00
  0.000000000000E+00  0.000000000000E+00  0.000000000000E+00  0.000000000000E+00
  0.000000000000E+00  0.000000000000E+00  0.000000000000E+00  0.000000000000E+00
  0.000000000000E+00  0.000000000000E+00  0.000000000000E+00  0.000000000000E+00
  0.000000000000E+00  0.000000000000E+00  0.000000000000E+00  0.000000000000E+00
  0.000000000000E+00  0.000000000000E+00  0.000000000000E+00  0.000000000000E+00
  0.000000000000E+00  0.000000000000E+00  0.000000000000E+00  0.000000000000E+00
  0.000000000000E+00  0.000000000000E+00  0.000000000000E+00  0.000000000000E+00
  0.000000000000E+00  0.000000000000E+00  0.000000000000E+00  0.000000000000E+00
  0.000000000000E+00  0.000000000000E+00  0.000000000000E+00  0.000000000000E+00
  0.000000000000E+00  0.000000000000E+00  0.000000000000E+00  0.000000000000E+00
  0.000000000000E+00  0.000000000000E+00  0.000000000000E+00  0.000000000000E+00
  0.000000000000E+00  0.000000000000E+00
</data>
</radfunc>
</pseudocore-charge>
<semilocal-potentials set="scalar_relativistic">
<slps n="2" l="s" rc="1.20849220363" eref="-0.344843184602">
<radfunc>
<data npts="290">
  7.708417073644E+00  7.706412232916E+00  7.700229747695E+00  7.690008389379E+00
  7.675822929332E+00  7.657215975438E+00  7.633576158914E+00  7.606608609308E+00
  7.576415976206E+00  7.541378688483E+00  7.502106313498E+00  7.459683151483E+00
  7.408775107028E+00  7.356026734986E+00  7.294347894701E+00  7.233333092223E+00
  7.163786903769E+00  7.098560819843E+00  7.026031947004E+00  6.945511110908E+00
  6.856276319876E+00  6.778112563946E+00  6.693502761766E+00  6.602053413886E+00
  6.503373263222E+00  6.397079093902E+00  6.282802459650E+00  6.191647251594E+00
  6.095671631268E+00  5.994752521896E+00  5.888781029472E+00  5.777664761594E+00
  5.661330153518E+00  5.539724738334E+00  5.412819284866E+00  5.280609713137E+00
  5.143118683902E+00  5.000396746567E+00  4.902380576654E+00  4.802104534794E+00
  4.699604575090E+00  4.594921979882E+00  4.488103088500E+00  4.379198932539E+00
  4.268264772709E+00  4.155359533867E+00  4.040545136834E+00  3.923885728077E+00
  3.805446811335E+00  3.685294288798E+00  3.563493423593E+00  3.440107739990E+00
  3.315197883029E+00  3.188820464984E+00  3.061026932322E+00  2.931862493279E+00
  2.801365152881E+00  2.669564908776E+00  2.536483167522E+00  2.402132446464E+00
  2.266516430735E+00  2.129630457671E+00  1.991462501468E+00  1.851994728627E+00
  1.711205688875E+00  1.569073196210E+00  1.425577939641E+00  1.353315083837E+00
  1.280707842559E+00  1.207756673501E+00  1.134463162844E+00  1.060830221859E+00
  9.868622923977E-01  9.125655602020E-01  8.379481747309E-01  7.630204739954E-01
  6.877952126680E-01  6.122877915025E-01  5.365164858616E-01  4.605026709134E-01
  3.842710408198E-01  3.078498190046E-01  2.312709563647E-01  1.545703140715E-01
  7.778782741061E-02  9.676469301965E-04 -7.584174698435E-02 -1.525874601115E-01
 -2.292121350565E-01 -3.056539406987E-01 -3.818466045385E-01 -4.577194919841E-01
 -5.331977364903E-01 -6.082024242531E-01 -6.826508368817E-01 -7.564567551004E-01
 -8.295308260703E-01 -9.017809963607E-01 -9.731130119336E-01 -1.043430985728E+00
 -1.112638032539E+00 -1.180636969875E+00 -1.247331082350E+00 -1.312624945904E+00
 -1.376425306791E+00 -1.438642008767E+00 -1.499188960334E+00 -1.557985132203E+00
 -1.614955573352E+00 -1.670032432261E+00 -1.723155967989E+00 -1.774275533954E+00
 -1.823350515380E+00 -1.870351199700E+00 -1.915259557531E+00 -1.958069910494E+00
 -1.998789460987E+00 -2.037438658270E+00 -2.074051374889E+00 -2.108674867696E+00
 -2.141369498564E+00 -2.172208191508E+00 -2.201275605369E+00 -2.228667004582E+00
 -2.254486814986E+00 -2.278846857074E+00 -2.301864255766E+00 -2.323659033495E+00
 -2.344351402301E+00 -2.364058780556E+00 -2.382892570733E+00 -2.400954746192E+00
 -2.418334306967E+00 -2.435103676637E+00 -2.451315124269E+00 -2.466997306555E+00
 -2.482152035205E+00 -2.496751382763E+00 -2.510735245761E+00 -2.524009486878E+00
 -2.536444776916E+00 -2.547876252418E+00 -2.558104095107E+00 -2.566895124625E+00
 -2.573985475973E+00 -2.579084407430E+00 -2.581879253629E+00 -2.582041501945E+00
 -2.579233928962E+00 -2.573118688047E+00 -2.563366189963E+00 -2.549664567177E+00
 -2.531729460691E+00 -2.509313817715E+00 -2.482217341840E+00 -2.452883846964E+00
 -2.423904039727E+00 -2.395257554513E+00 -2.366939998925E+00 -2.338947256630E+00
 -2.311275482917E+00 -2.283921071697E+00 -2.256880627764E+00 -2.230150939385E+00