<?xml version="1.0" encoding="UTF-8" ?>
<psml version="1.1" energy_unit="hartree" length_unit="bohr"
 uuid="7bcaa5b0-23d3-11e8-56c4-88b5feaf3fb0"
 xmlns="http://esl.cecam.org/PSML/ns/1.1">
<provenance creator="ONCVPSP-3.3.0+psml-3.3.0-73 (scalar-relativistic)"
 date="2018-03-09">
<annotation action="semilocal-pseudopotential-generation"
 action-cont="projectors-generation" />
<input-file name="oncvpsp-input">
<![CDATA[# atsym z nc nv iexc psfile
Ba 56 9 3 -001012 upf
# n l f
1 0 2.0
2 0 2.0
2 1 6.0
3 0 2.0
3 1 6.0
3 2 10.0
4 0 2.0
4 1 6.0
4 2 10.0
5 0 2.0
5 1 6.0
6 0 2.0
# lmax
2
# l rc ep ncon nbas qcut
0 2.15 0.0 4 7 5.2
1 1.9 0.0 4 8 6.6
2 2.15 0.0 4 9 6.6
# lloc lpopt rc5 dvloc0
4 5 1.9 0.0
# l nproj debl
0 2 1.0
1 2 2.5
2 2 3.0
# icmod fcfact rcfact
3 5.0 1.25
# epsh1 epsh2 depsh
-12.0 12.0 0.02
# rlmax drl
6.0 0.01
 0
]]>
</input-file>
</provenance>
<pseudo-atom-spec atomic-label="Ba" atomic-number="56" z-pseudo="10"
 flavor="Hamann&apos;s oncvpsp" relativity="scalar" spin-dft="no"
 core-corrections="yes">
<annotation pseudo-energy="-25.7398437407" />
<exchange-correlation>
<annotation oncvpsp-xc-code="-1012" oncvpsp-xc-type="libxc-interface" />
<libxc-info number-of-functionals="2">
<functional name="Slater exchange (LDA)" type="exchange" id="1" />
<functional name="Perdew &amp; Wang (LDA)" type="correlation" id="12" />
</libxc-info>
</exchange-correlation>
<valence-configuration total-valence-charge="10">
<shell n="5" l="s" occupation="2" />
<shell n="5" l="p" occupation="6" />
<shell n="6" l="s" occupation="2" />
</valence-configuration>
</pseudo-atom-spec>
<grid npts="457">
<annotation type="sampled from oncvpsp log grid"
 recipe="r(i:1..N) = r1*exp(a*(i-1)) + r=0; resampled"
 recipe-cont="r1: scale; a: step" scale="0.892857142857E-05"
 step="0.119285708653E-01" delta="0.500000000000E-02" rmax="44.0559055307" />
<grid-data>
  0.000000000000E+00  5.030765996809E-03  1.004856027829E-02  1.507444276529E-02
  2.031206510006E-02  2.547908439618E-02  3.083699266043E-02  3.600963173750E-02
  4.105861707579E-02  4.626040627112E-02  5.150318121329E-02  5.666020677615E-02
  6.233360651298E-02  6.776194178895E-02  7.278953042278E-02  7.819014035445E-02
  8.399144785162E-02  8.915334250897E-02  9.463247370808E-02  1.004483379769E-01
  1.066216300490E-01  1.118323285593E-01  1.172976787660E-01  1.230301257351E-01
  1.290427227344E-01  1.353491609572E-01  1.419638006982E-01  1.471360711987E-01
  1.524967867957E-01  1.580528132467E-01  1.638112664542E-01  1.697795215795E-01
  1.759652224887E-01  1.823762915423E-01  1.890209397420E-01  1.959076772469E-01
  2.030453242728E-01  2.104430223891E-01  2.155239587216E-01  2.207275691810E-01
  2.260568156113E-01  2.315147313674E-01  2.371044230416E-01  2.428290722315E-01
  2.486919373514E-01  2.546963554868E-01  2.608457442937E-01  2.671436039439E-01
  2.735935191176E-01  2.801991610431E-01  2.869642895874E-01  2.938927553952E-01
  3.009885020814E-01  3.082555684757E-01  3.156980909209E-01  3.233203056281E-01
  3.311265510872E-01  3.391212705367E-01  3.473090144925E-01  3.556944433384E-01
  3.642823299784E-01  3.730775625534E-01  3.820851472237E-01  3.913102110182E-01
  4.007580047531E-01  4.104339060198E-01  4.203434222468E-01  4.253875433137E-01
  4.304921938335E-01  4.356581001595E-01  4.408859973614E-01  4.461766293297E-01
  4.515307488817E-01  4.569491178683E-01  4.624325072827E-01  4.679816973701E-01
  4.735974777385E-01  4.792806474714E-01  4.850320152411E-01  4.908523994239E-01
  4.967426282170E-01  5.027035397556E-01  5.087359822327E-01  5.148408140195E-01
  5.210189037877E-01  5.272711306332E-01  5.335983842008E-01  5.400015648112E-01
  5.464815835889E-01  5.530393625920E-01  5.596758349431E-01  5.663919449624E-01
  5.731886483020E-01  5.800669120816E-01  5.870277150266E-01  5.940720476069E-01
  6.012009121782E-01  6.084153231243E-01  6.157163070018E-01  6.231049026858E-01
  6.305821615181E-01  6.381491474563E-01  6.458069372257E-01  6.535566204725E-01
  6.613992999181E-01  6.693360915171E-01  6.773681246153E-01  6.854965421107E-01
  6.937225006161E-01  7.020471706235E-01  7.104717366709E-01  7.189973975110E-01
  7.276253662811E-01  7.363568706765E-01  7.451931531246E-01  7.541354709621E-01
  7.631850966137E-01  7.723433177730E-01  7.816114375863E-01  7.909907748373E-01
  8.004826641354E-01  8.100884561050E-01  8.198095175783E-01  8.296472317892E-01
  8.396029985707E-01  8.496782345535E-01  8.598743733682E-01  8.701928658486E-01
  8.806351802388E-01  8.912028024016E-01  9.018972360304E-01  9.127200028628E-01
  9.236726428972E-01  9.347567146119E-01  9.459737951873E-01  9.573254807295E-01
  9.688133864983E-01  9.804391471363E-01  9.922044169019E-01  1.004110869905E+00
  1.016160200344E+00  1.028354122748E+00  1.040694372221E+00  1.053182704687E+00
  1.065820897144E+00  1.078610747909E+00  1.091554076884E+00  1.104652725807E+00
  1.117908558516E+00  1.131323461219E+00  1.144899342753E+00  1.158638134866E+00
  1.172541792485E+00  1.186612293995E+00  1.200851641522E+00  1.215261861221E+00
  1.229845003555E+00  1.244603143598E+00  1.259538381321E+00  1.274652841897E+00
  1.289948676000E+00  1.305428060112E+00  1.321093196833E+00  1.336946315195E+00
  1.352989670978E+00  1.369225547029E+00  1.385656253594E+00  1.402284128637E+00
  1.419111538180E+00  1.436140876639E+00  1.453374567158E+00  1.470815061964E+00
  1.488464842708E+00  1.506326420820E+00  1.524402337870E+00  1.542695165924E+00
  1.561207507916E+00  1.579941998011E+00  1.598901301987E+00  1.618088117611E+00
  1.637505175022E+00  1.657155237122E+00  1.677041099968E+00  1.697165593167E+00
  1.717531580285E+00  1.738141959249E+00  1.758999662760E+00  1.780107658713E+00
  1.801468950617E+00  1.823086578025E+00  1.844963616961E+00  1.867103180365E+00
  1.889508418529E+00  1.912182519551E+00  1.935128709786E+00  1.958350254303E+00
  1.981850457355E+00  2.005632662843E+00  2.029700254797E+00  2.054056657855E+00
  2.078705337749E+00  2.103649801802E+00  2.128893599424E+00  2.154440322617E+00
  2.180293606488E+00  2.206457129766E+00  2.232934615323E+00  2.259729830707E+00
  2.286846588676E+00  2.314288747740E+00  2.342060212713E+00  2.370164935265E+00
  2.398606914488E+00  2.427390197462E+00  2.456518879832E+00  2.485997106390E+00
  2.515829071666E+00  2.546019020526E+00  2.576571248773E+00  2.607490103758E+00
  2.638779985003E+00  2.670445344823E+00  2.702490688961E+00  2.734920577229E+00
  2.767739624155E+00  2.800952499645E+00  2.834563929641E+00  2.868578696797E+00
  2.903001641158E+00  2.937837660852E+00  2.973091712782E+00  3.008768813336E+00
  3.044874039096E+00  3.081412527565E+00  3.118389477896E+00  3.155810151630E+00
  3.193679873450E+00  3.232004031931E+00  3.270788080314E+00  3.310037537278E+00
  3.349757987726E+00  3.389955083578E+00  3.430634544581E+00  3.471802159116E+00
  3.513463785026E+00  3.555625350446E+00  3.598292854651E+00  3.641472368907E+00
  3.685170037334E+00  3.729392077782E+00  3.774144782715E+00  3.819434520108E+00
  3.865267734349E+00  3.911650947161E+00  3.958590758527E+00  4.006093847630E+00
  4.054166973801E+00  4.102816977487E+00  4.152050781217E+00  4.201875390591E+00
  4.252297895278E+00  4.303325470022E+00  4.354965375662E+00  4.407224960170E+00
  4.460111659692E+00  4.513632999608E+00  4.567796595604E+00  4.622610154751E+00
  4.678081476608E+00  4.734218454327E+00  4.791029075779E+00  4.848521424688E+00
  4.906703681785E+00  4.965584125966E+00  5.025171135478E+00  5.085473189103E+00
  5.146498867373E+00  5.208256853781E+00  5.270755936027E+00  5.334005007259E+00
  5.398013067346E+00  5.462789224154E+00  5.528342694844E+00  5.594682807182E+00
  5.661819000868E+00  5.729760828879E+00  5.798517958825E+00  5.868100174331E+00
  5.938517376423E+00  6.009779584940E+00  6.081896939959E+00  6.154879703239E+00
  6.228738259678E+00  6.303483118794E+00  6.379124916219E+00  6.455674415214E+00
  6.533142508197E+00  6.611540218295E+00  6.690878700915E+00  6.771169245326E+00
  6.852423276269E+00  6.934652355585E+00  7.017868183852E+00  7.102082602058E+00
  7.187307593283E+00  7.273555284402E+00  7.360837947815E+00  7.449168003189E+00
  7.538558019227E+00  7.629020715458E+00  7.720568964043E+00  7.813215791612E+00
  7.906974381111E+00  8.001858073684E+00  8.097880370569E+00  8.195054935015E+00
  8.293395594236E+00  8.392916341366E+00  8.493631337463E+00  8.595554913512E+00
  8.698701572474E+00  8.803085991344E+00  8.908723023240E+00  9.015627699519E+00
  9.123815231913E+00  9.233301014696E+00  9.344100626873E+00  9.456229834395E+00
  9.569704592408E+00  9.684541047517E+00  9.800755540087E+00  9.918364606568E+00
  1.003738498185E+01  1.015783360163E+01  1.027972760485E+01  1.040308433611E+01
  1.052792134814E+01  1.065425640432E+01  1.078210748117E+01  1.091149277094E+01
  1.104243068419E+01  1.117493985241E+01  1.130903913063E+01  1.144474760020E+01
  1.158208457140E+01  1.172106958626E+01  1.186172242130E+01  1.200406309035E+01
  1.214811184744E+01  1.229388918961E+01  1.244141585988E+01  1.259071285020E+01
  1.274180140440E+01  1.289470302125E+01  1.304943945751E+01  1.320603273100E+01
  1.336450512377E+01  1.352487918526E+01  1.368717773548E+01  1.385142386831E+01
  1.401764095473E+01  1.418585264618E+01  1.435608287794E+01  1.452835587247E+01
  1.470269614294E+01  1.487912849666E+01  1.505767803862E+01  1.523837017508E+01
  1.542123061718E+01  1.560628538459E+01  1.579356080920E+01  1.598308353891E+01
  1.617488054138E+01  1.636897910788E+01  1.656540685717E+01  1.676419173946E+01
  1.696536204033E+01  1.716894638481E+01  1.737497374143E+01  1.758347342633E+01
  1.779447510744E+01  1.800800880873E+01  1.822410491444E+01  1.844279417341E+01
  1.866410770349E+01  1.888807699593E+01  1.911473391989E+01  1.934411072692E+01
  1.957624005565E+01  1.981115493632E+01  2.004888879555E+01  2.028947546110E+01
  2.053294916663E+01  2.077934455663E+01  2.102869669131E+01  2.128104105161E+01
  2.153641354422E+01  2.179485050676E+01  2.205638871284E+01  2.232106537739E+01
  2.258891816192E+01  2.285998517986E+01  2.313430500202E+01  2.341191666205E+01
  2.369285966199E+01  2.397717397793E+01  2.426490006567E+01  2.455607886646E+01
  2.485075181285E+01  2.514896083461E+01  2.545074836462E+01  2.575615734500E+01
  2.606523123314E+01  2.637801400794E+01  2.669455017603E+01  2.701488477814E+01
  2.733906339548E+01  2.766713215623E+01  2.799913774210E+01  2.833512739501E+01
  2.867514892375E+01  2.901925071083E+01  2.936748171936E+01  2.971989150000E+01
  3.007653019800E+01  3.043744856037E+01  3.080269794310E+01  3.117233031841E+01
  3.154639828223E+01  3.192495506162E+01  3.230805452236E+01  3.269575117663E+01
  3.308810019075E+01  3.348515739304E+01  3.388697928175E+01  3.429362303313E+01
  3.470514650953E+01  3.512160826765E+01  3.554306756686E+01  3.596958437766E+01
  3.640121939019E+01  3.683803402287E+01  3.728009043115E+01  3.772745151632E+01
  3.818018093452E+01  3.863834310573E+01  3.910200322300E+01  3.957122726168E+01
  4.004608198882E+01  4.052663497268E+01  4.101295459236E+01  4.150511004746E+01
  4.200317136803E+01  4.250720942445E+01  4.301729593754E+01  4.353350348879E+01
  4.405590553066E+01
</grid-data>
</grid>
<valence-charge total-charge="10" is-unscreening-charge="yes"
 rescaled-to-z-pseudo="no">
<radfunc>
<data npts="457">
  8.623835001119E-03  8.633263375810E-03  8.661482249573E-03  8.708675579725E-03
  8.778183351197E-03  8.867320443604E-03  8.981653402883E-03  9.113579645451E-03
  9.263201015182E-03  9.439404759759E-03  9.640245020610E-03  9.861231645109E-03
  1.013205552593E-02  1.041930081113E-02  1.071075699660E-02  1.105207992991E-02
  1.145260195957E-02  1.183968560305E-02  1.228352759638E-02  1.279339133990E-02
  1.338026907695E-02  1.391393515021E-02  1.451306916688E-02  1.518674264840E-02
  1.594545954086E-02  1.680140799770E-02  1.776875945962E-02  1.857721379603E-02
  1.946552534654E-02  2.044264494614E-02  2.151864443534E-02  2.270486775165E-02
  2.401410301683E-02  2.546077849520E-02  2.706118566105E-02  2.883373301019E-02
  3.079923468202E-02  3.298123842134E-02  3.456920861762E-02  3.627392511341E-02
  3.810489492525E-02  4.007244940933E-02  4.218781680702E-02  4.446320088778E-02
  4.691186612076E-02  4.954822981974E-02  5.238796171522E-02  5.544809141115E-02
  5.874712418149E-02  6.230516555091E-02  6.614405508251E-02  7.028750976142E-02
  7.476127731324E-02  7.959329972718E-02  8.481388716161E-02  9.045590229032E-02
  9.655495499488E-02  1.031496071177E-01  1.102815867538E-01  1.179960112695E-01
  1.263416178858E-01  1.353710002433E-01  1.451408488630E-01  1.557121928244E-01
  1.671506392876E-01  1.795266066734E-01  1.929155463818E-01  2.000148863200E-01
  2.073981468509E-01  2.150762617080E-01  2.230605125380E-01  2.313625324888E-01
  2.399943090204E-01  2.489681858423E-01  2.582968638715E-01  2.679934011003E-01
  2.780712112518E-01  2.885440610953E-01  2.994260662843E-01  3.107316855720E-01
  3.224757132478E-01  3.346732696337E-01  3.473397894648E-01  3.604910079740E-01
  3.741429444889E-01  3.883118833404E-01  4.030143518748E-01  4.182670953506E-01
  4.340870484960E-01  4.504913034926E-01  4.674970741472E-01  4.851216560038E-01
  5.033823821480E-01  5.222965744480E-01  5.418814899764E-01  5.621542623584E-01
  5.831318377893E-01  6.048309054727E-01  6.272678222343E-01  6.504585310773E-01
  6.744184734568E-01  6.991624950671E-01  7.247047449558E-01  7.510585678033E-01
  7.782363892337E-01  8.062495940583E-01  8.351083973911E-01  8.648217086215E-01
  8.953969882787E-01  9.268400978821E-01  9.591551429335E-01  9.923443092792E-01
  1.026407693150E+00  1.061343125267E+00  1.097145989503E+00  1.133809036683E+00
  1.171322194216E+00  1.209672372368E+00  1.248843268108E+00  1.288815167586E+00
  1.329564748441E+00  1.371064883262E+00  1.413284445693E+00  1.456188120798E+00
  1.499736221464E+00  1.543884512761E+00  1.588584046328E+00  1.633781007003E+00
  1.679416574036E+00  1.725426799378E+00  1.771742505637E+00  1.818289206396E+00
  1.864987051692E+00  1.911750801512E+00  1.958489830184E+00  2.005108164610E+00
  2.051504559199E+00  2.097572610376E+00  2.143200913414E+00  2.188273264206E+00
  2.232668908441E+00  2.276262840401E+00  2.318926153331E+00  2.360526442990E+00
  2.400928265641E+00  2.439993651245E+00  2.477582672167E+00  2.513554067127E+00
  2.547765919520E+00  2.580076388556E+00  2.610344490971E+00  2.638430930269E+00
  2.664198969690E+00  2.687515344206E+00  2.708251206047E+00  2.726283097327E+00
  2.741493942476E+00  2.753774052327E+00  2.763022130808E+00  2.769146274421E+00
  2.772064953904E+00  2.771707966775E+00  2.768017348895E+00  2.760948232679E+00
  2.750469639233E+00  2.736565191534E+00  2.719233735725E+00  2.698489857799E+00
  2.674364283350E+00  2.646904148713E+00  2.616173132718E+00  2.582251439447E+00
  2.545235623829E+00  2.505238253655E+00  2.462387403580E+00  2.416825978976E+00
  2.368710870026E+00  2.318211939215E+00  2.265510848311E+00  2.210799734018E+00
  2.154279744669E+00  2.096159453467E+00  2.036653166958E+00  1.975979150312E+00
  1.914357793761E+00  1.852009746883E+00  1.789154049347E+00  1.726006288161E+00
  1.662776812199E+00  1.599669034890E+00  1.536877855264E+00  1.474588226077E+00
  1.412973895471E+00  1.352196345527E+00  1.292403984250E+00  1.233731742938E+00
  1.176301073154E+00  1.120219967417E+00  1.065582963958E+00  1.012471356024E+00
  9.609534826426E-01  9.110851272829E-01  8.629100110149E-01  8.164603714457E-01
  7.717577144447E-01  7.288139981205E-01  6.876330309030E-01  6.482110243415E-01
  6.105371728160E-01  5.745942168295E-01  5.403590085762E-01  5.078030697140E-01
  4.768931392012E-01  4.475917082396E-01  4.198575394696E-01  3.936461686658E-01
  3.689103864473E-01  3.456006985896E-01  3.236657635050E-01  3.030528057824E-01
  2.837080049397E-01  2.655768587883E-01  2.486045210386E-01  2.327361129954E-01
  2.179170093873E-01  2.040930985608E-01  1.912110174361E-01  1.792183617723E-01
  1.680638724260E-01  1.576975984038E-01  1.480710376158E-01  1.391372563229E-01
  1.308509883453E-01  1.231687151584E-01  1.160487280484E-01  1.094511735302E-01
  1.033380832531E-01  9.767338962442E-02  9.242292838128E-02  8.755442932526E-02
  8.303749641376E-02  7.884357837039E-02  7.494593093897E-02  7.131957186068E-02
  6.794122960431E-02  6.478928682469E-02  6.184371946690E-02  5.908603237333E-02
  5.649919218879E-02  5.406755829633E-02  5.177681245432E-02  4.961388774305E-02
  4.756689736987E-02  4.562506382267E-02  4.377864880665E-02  4.201888434547E-02
  4.033790537808E-02  3.872868413565E-02  3.718496653890E-02  3.570121081588E-02
  3.427252850288E-02  3.289462795702E-02  3.156376047811E-02  3.027666910897E-02
  2.903054015860E-02  2.782295746914E-02  2.665185942822E-02  2.551549870939E-02
  2.441240470848E-02  2.334134862907E-02  2.230131115892E-02  2.129145266841E-02
  2.031108585352E-02  1.935965073845E-02  1.843669194676E-02  1.754183814529E-02
  1.667478356092E-02  1.583527146776E-02  1.502307954003E-02  1.423800696515E-02
  1.347986321061E-02  1.274845833904E-02  1.204359476617E-02  1.136506035806E-02
  1.071262276575E-02  1.008602489766E-02  9.484981432742E-03  8.909176280271E-03
  8.358260895490E-03  7.831853363649E-03  7.329538168769E-03  6.850866566893E-03
  6.395357488023E-03  5.962498894901E-03  5.551749530471E-03  5.162540990354E-03
  4.794280060726E-03  4.446351266171E-03  4.118119576148E-03  3.808933222839E-03
  3.518126587119E-03  3.245023113346E-03  2.988938217500E-03  2.749182156923E-03
  2.525062833539E-03  2.315888505924E-03  2.120970388898E-03  1.939625122578E-03
  1.771177095797E-03  1.614960611744E-03  1.470321886337E-03  1.336620872421E-03
  1.213232905240E-03  1.099550166804E-03  9.949829688139E-04  8.989608556131E-04
  8.109335302910E-04  7.303716085468E-04  6.567672062061E-04  5.896343674135E-04
  5.285093414806E-04  4.729507171593E-04  4.225394237497E-04  3.768786089335E-04
  3.355934035722E-04  2.983305839139E-04  2.647581417419E-04  2.345647729624E-04
  2.074592949982E-04  1.831700031191E-04  1.614439755266E-04  1.420463366221E-04
  1.247594874338E-04  1.093823116726E-04  9.572936534250E-05  8.363005724847E-05
  7.292782714492E-05  6.347932765115E-05  5.515361543852E-05  4.783135657552E-05
  4.140405030689E-05  3.577327494930E-05  3.084995901274E-05  2.655368010990E-05
  2.281199369842E-05  1.955979321626E-05  1.673870272138E-05  1.429650273466E-05
  1.218658961050E-05  1.036746842414E-05  8.802279066594E-06  7.458354978469E-06
  6.306813730034E-06  5.322178466395E-06  4.482029081121E-06  3.766681857321E-06
  3.158896219679E-06  2.643607171984E-06  2.207681949759E-06  1.839699394199E-06
  1.529750549326E-06  1.269258996575E-06  1.050819467647E-06  8.680533150787E-07
  7.154794685452E-07  5.883995613996E-07  4.827959745701E-07  3.952416120348E-07
  3.228202921759E-07  2.630567110875E-07  2.138550062077E-07  1.734450204936E-07
  1.403354379099E-07  1.132730295844E-07  9.120731602142E-08  7.326001383371E-08
  5.869869523260E-08  4.691414476535E-08  3.740095038472E-08  2.974091480381E-08
  2.358891823340E-08  1.866090507227E-08  1.472370502094E-08  1.158643354828E-08
  9.093247818210E-09  7.117262259857E-09  5.555453131987E-09  4.324403891652E-09
  3.356763133111E-09  2.598304519017E-09  2.005493682167E-09  1.543480726182E-09
  1.184448882791E-09  9.062602673738E-10  6.913486779173E-10  5.258171586526E-10
  3.987047400460E-10  3.013925010126E-10  2.271239953542E-10  1.706192491922E-10
  1.277650655554E-10  9.536735205306E-11  7.095369392000E-11  5.261649505191E-11
  3.888876316504E-11  2.864607375721E-11  2.102945620858E-11  1.538494322300E-11
  1.121634555802E-11  8.148486531118E-12  5.898679811290E-12  4.254680500783E-12
  3.057701249718E-12  2.189377097942E-12  1.561797462841E-12  1.109911678080E-12
  7.857644578203E-13  5.541368339873E-13  3.892624415397E-13  2.723633918863E-13
  1.898083674520E-13  1.317412364623E-13  9.106405475592E-14  6.268591018007E-14
  4.297037617078E-14  2.933073409689E-14  1.993468059612E-14  1.348981325731E-14
  9.088461167763E-15  6.095926304591E-15  4.070341800316E-15  2.705455962521E-15
  1.789966002959E-15  1.178744915809E-15  7.725762187430E-16  5.039468193140E-16
  3.271335337852E-16  2.113183513370E-16  1.358299854343E-16  8.687095052452E-17
  5.527743005079E-17  3.499363175961E-17  2.203795665897E-17  1.380599363280E-17
  8.603013858446E-18  5.332028023979E-18  3.286737109360E-18  2.014836492539E-18
  1.228253865286E-18  7.445275876183E-19  4.487332214117E-19  2.688935926613E-19
  1.601870280102E-19  0.000000000000E+00  0.000000000000E+00  0.000000000000E+00
  0.000000000000E+00
</data>
</radfunc>
</valence-charge>
<pseudocore-charge matching-radius="1.25953838132"
 number-of-continuous-derivatives="4">
<annotation model-charge-form="Teter function with specified parameters" />
<radfunc>
<data npts="290">
  1.478991551117E+01  1.478943842249E+01  1.478801215987E+01  1.478563238293E+01
  1.478213982602E+01  1.477768240281E+01  1.477199975982E+01  1.476549027640E+01
  1.475816803611E+01  1.474962509547E+01  1.473999049955E+01  1.472951204455E+01
  1.471683944156E+01  1.470359392051E+01  1.469035145740E+01  1.467508492913E+01
  1.465748742638E+01  1.464078935097E+01  1.462199710817E+01  1.460085110361E+01
  1.457706038228E+01  1.455590588758E+01  1.453266639768E+01  1.450714006843E+01
  1.447910628294E+01  1.444832406812E+01  1.441453041300E+01  1.438703731738E+01
  1.435755907597E+01  1.432595670545E+01  1.429208216160E+01  1.425577785319E+01
  1.421687614687E+01  1.417519886635E+01  1.413055678970E+01  1.408274914952E+01
  1.403156314184E+01  1.397677345044E+01  1.393812782006E+01  1.389770103554E+01
  1.385541651197E+01  1.381119492368E+01  1.376495416373E+01  1.371660930985E+01
  1.366607259775E+01  1.361325340283E+01  1.355805823162E+01  1.350039072415E+01
  1.344015166870E+01  1.337723903052E+01  1.331154799614E+01  1.324297103506E+01
  1.317139798090E+01  1.309671613394E+01  1.301881038733E+01  1.293756337958E+01
  1.285285567549E+01  1.276456597866E+01  1.267257137811E+01  1.257674763224E+01
  1.247696949322E+01  1.237311107506E+01  1.226504626888E+01  1.215264920887E+01
  1.203579479247E+01  1.191435925858E+01  1.178822082731E+01  1.172335068279E+01
  1.165726040503E+01  1.158993565398E+01  1.152136235817E+01  1.145152674285E+01
  1.138041535938E+01  1.130801511586E+01  1.123431330898E+01  1.115929765714E+01
  1.108295633483E+01  1.100527800840E+01  1.092625187300E+01  1.084586769091E+01
  1.076411583124E+01  1.068098731085E+01  1.059647383669E+01  1.051056784940E+01
  1.042326256824E+01  1.033455203738E+01  1.024443117332E+01  1.015289581376E+01
  1.005994276753E+01  9.965569865796E+00  9.869776014402E+00  9.772561247282E+00
  9.673926780925E+00  9.573875069817E+00  9.472409862758E+00  9.369536260010E+00
  9.265260771142E+00  9.159591373503E+00  9.052537571174E+00  8.944110454304E+00
  8.834322758660E+00  8.723188925273E+00  8.610725159977E+00  8.496949492709E+00
  8.381881836330E+00  8.265544044803E+00  8.147959970485E+00  8.029155520294E+00
  7.909158710524E+00  7.787999720012E+00  7.665710941395E+00  7.542327030148E+00
  7.417884951097E+00  7.292424022061E+00  7.165985954301E+00  7.038614889380E+00
  6.910357432094E+00  6.781262679048E+00  6.651382242495E+00  6.520770268999E+00
  6.389483452514E+00  6.257581041400E+00  6.125124838968E+00  5.992179197050E+00
  5.858811002156E+00  5.725089653743E+00  5.591087034104E+00  5.456877469431E+00
  5.322537681571E+00  5.188146730011E+00  5.053785943651E+00  4.919538841928E+00
  4.785491044861E+00  4.651730171651E+00  4.518345727431E+00  4.385428977872E+00
  4.253072811324E+00  4.121371588248E+00  3.990420977743E+00  3.860317781013E+00
  3.731159741707E+00  3.603045343092E+00  3.476073592155E+00  3.350343790740E+00
  3.225955293992E+00  3.103007256401E+00  2.981598365910E+00  2.861826566596E+00
  2.743788770613E+00  2.627580560143E+00  2.513295880276E+00  2.401026723847E+00
  2.290862809399E+00  2.182891253563E+00  2.077196239324E+00  1.973858681730E+00
  1.872955892777E+00  1.774561247334E+00  1.678743852083E+00  1.585568219603E+00
  1.495093949833E+00  1.407375421251E+00  1.322461494229E+00  1.240395229062E+00
  1.161213621292E+00  1.084947356937E+00  1.011620590300E+00  9.412507470192E-01
  8.738483549769E-01  8.094169056565E-01  7.479527484232E-01  6.894450200937E-01
  6.338756119940E-01  5.812191765124E-01  5.314431749145E-01  4.845079679166E-01
  4.403669501966E-01  3.989667296685E-01  3.602473519582E-01  3.241425700867E-01
  2.905801589115E-01  2.594822733832E-01  2.307658491629E-01  2.043430436091E-01
  1.801217145969E-01  1.580059340784E-01  1.378965327433E-01  1.196916715991E-01
  1.032874357723E-01  8.857844535017E-02  7.545847763573E-02  6.382109480597E-02
  5.356027063975E-02  4.457100973871E-02  3.674995250890E-02  2.999595911347E-02
  2.421066565640E-02  1.929900602131E-02  1.516969307397E-02  1.173565334422E-02
  8.914409835578E-03  6.628408264058E-03  4.805282799087E-03  3.378058258287E-03
  2.285286683188E-03  1.471117278772E-03  8.852998169531E-04  4.831227602964E-04
  2.252885321811E-04  7.772951533638E-05  1.136947258752E-05  1.836120961271E-06
  2.913152207647E-05  7.726774786402E-05  1.338759129523E-04  1.897971084678E-04
  2.386640057953E-04  2.764819077494E-04  3.012177998960E-04  3.124054951687E-04
  3.107742773489E-04  2.979075489323E-04  2.759369006032E-04  2.472757755978E-04
  2.143955430128E-04  1.796453664978E-04  1.451158106481E-04  1.125447216729E-04
  8.326260707280E-05  5.817357469771E-05  3.776692354508E-05  2.215374838431E-05
  1.112245910591E-05  4.206942583422E-06  7.612147312320E-07  3.481312156251E-08
  1.243840406646E-06  3.633445641083E-06  6.528571246507E-06  9.370934400350E-06
  1.174138302051E-05  1.336789590217E-05  1.412051407263E-05  1.399533363706E-05
  1.309030903760E-05  1.157597576351E-05  9.664288508638E-06  7.578590994511E-06
  5.527314653634E-06  3.683391871461E-06  2.170627974985E-06  1.057477550943E-06
  3.578918776877E-07  3.821894739929E-08  2.860897888542E-08  2.370527595846E-07
  5.640819120075E-07  9.162887085908E-07  1.217152743498E-06  1.414144573564E-06
  1.481647317694E-06  1.419821800608E-06  1.250064651661E-06  1.008106736964E-06
  7.360243897207E-07  4.744656608357E-07  2.562336660134E-07  1.020517532660E-07
  1.891594895652E-08  0.000000000000E+00  0.000000000000E+00  0.000000000000E+00
  0.000000000000E+00  0.000000000000E+00  0.000000000000E+00  0.000000000000E+00
  0.000000000000E+00  0.000000000000E+00  0.000000000000E+00  0.000000000000E+00
  0.000000000000E+00  0.000000000000E+00  0.000000000000E+00  0.000000000000E+00
  0.000000000000E+00  0.000000000000E+00  0.000000000000E+00  0.000000000000E+00
  0.000000000000E+00  0.000000000000E+00
</data>
</radfunc>
</pseudocore-charge>
<semilocal-potentials set="scalar_relativistic">
<slps n="5" l="s" rc="2.15444032262" eref="-1.24230792460">
<radfunc>
<data npts="290">
  5.079342416354E+01  5.076329639414E+01  5.067340005718E+01  5.052397352125E+01
  5.030595476999E+01  5.002989335625E+01  4.968146059035E+01  4.928708582416E+01
  4.884942477251E+01  4.834659740250E+01  4.778934623732E+01  4.719479658130E+01
  4.649128212992E+01  4.577352705532E+01  4.507324477417E+01  4.428659659750E+01
  4.340618520926E+01  4.259573535827E+01  4.171139369025E+01  4.074975060292E+01
  3.970796933465E+01  3.881540730943E+01  3.786953957595E+01  3.687014064410E+01
  3.581747353853E+01  3.471234074695E+01  3.355612817349E+01  3.265662902735E+01
  3.173059236050E+01  3.077930422047E+01  2.980425515478E+01  2.880713651979E+01
  2.778983353313E+01  2.675441499642E+01  2.570311970475E+01  2.463833965656E+01
  2.356260027649E+01  2.247853796144E+01  2.175254765375E+01  2.102488968066E+01
  2.029639480391E+01  1.956789824056E+01  1.884023590320E+01  1.811424063657E+01
  1.739073848716E+01  1.667054504161E+01  1.595446186896E+01  1.524327309972E+01
  1.453774217292E+01  1.383860877941E+01  1.314658602665E+01  1.246235784701E+01
  1.178657666781E+01  1.111986135751E+01  1.046279545884E+01  9.815925715371E+00
  9.179760894630E+00  8.554770906900E+00  7.941386215519E+00  7.339997531277E+00
  6.750955780595E+00  6.174572334639E+00  5.611119484334E+00  5.060831144440E+00
  4.523903768421E+00  4.000497454811E+00  3.490737225097E+00  3.241004218451E+00
  2.994714452805E+00  2.751874348348E+00  2.512488423487E+00  2.276559349351E+00
  2.044088005568E+00  1.815073537180E+00  1.589513412552E+00  1.367403482123E+00
  1.148738037888E+00  9.335098734743E-01  7.217103446756E-01  5.133294303493E-01
  3.083557935436E-01  1.067768427553E-01 -9.142120678761E-02 -2.862532719161E-01
 -4.777353404762E-01 -6.658844105385E-01 -8.507184299435E-01 -1.032256236261E+00
 -1.210517497236E+00 -1.385522651786E+00 -1.557292851619E+00 -1.725849903521E+00
 -1.891216212383E+00 -2.053414724994E+00 -2.212468874671E+00 -2.368402526752E+00
 -2.521239924994E+00 -2.671005638919E+00 -2.817724512129E+00 -2.961421611628E+00
 -3.102122178181E+00 -3.239851577720E+00 -3.374635253838E+00 -3.506498681385E+00
 -3.635467321178E+00 -3.761566575857E+00 -3.884821746895E+00 -4.005257992775E+00
 -4.122900288367E+00 -4.237773385489E+00 -4.349901774700E+00 -4.459309648312E+00
 -4.566020864640E+00 -4.670058913514E+00 -4.771446883045E+00 -4.870207427675E+00
 -4.966362737496E+00 -5.059934508878E+00 -5.150943916386E+00 -5.239411586005E+00
 -5.325357569674E+00 -5.408801321140E+00 -5.489761673114E+00 -5.568256815748E+00
 -5.644304276412E+00 -5.717920900775E+00 -5.789122835170E+00 -5.857925510238E+00
 -5.924343625833E+00 -5.988391137155E+00 -6.050081242111E+00 -6.109426369859E+00
 -6.166438170523E+00 -6.221127506035E+00 -6.273504442090E+00 -6.323578241180E+00
 -6.371357356675E+00 -6.416849427946E+00 -6.460061276495E+00 -6.500998903100E+00
 -6.539667485966E+00 -6.576071379913E+00 -6.610214116616E+00 -6.642098405976E+00
 -6.671726138672E+00 -6.699098390031E+00 -6.724215425334E+00 -6.747076706745E+00
 -6.767680902098E+00 -6.786025895792E+00 -6.802108802149E+00 -6.815925981613E+00
 -6.827473060253E+00 -6.836744953140E+00 -6.843735892198E+00 -6.848439459295E+00