<?xml version="1.0" encoding="UTF-8" ?>
<psml version="1.1" energy_unit="hartree" length_unit="bohr"
 uuid="deda5df0-23d1-11e8-5c5f-a4e0ebf3b3fc"
 xmlns="http://esl.cecam.org/PSML/ns/1.1">
<provenance creator="ONCVPSP-3.3.0+psml-3.3.0-73 (scalar-relativistic)"
 date="2018-03-09">
<annotation action="semilocal-pseudopotential-generation"
 action-cont="projectors-generation" />
<input-file name="oncvpsp-input">
<![CDATA[# atsym z nc nv iexc psfile
Be 4 0 2 -001012 upf
# n l f
1 0 2.0
2 0 2.0
# lmax
1
# l rc ep ncon nbas qcut
0 1.35 0.0 4 8 9.2
1 1.1 0.0 4 8 9.4
# lloc lpopt rc5 dvloc0
4 5 0.95 0.0
# l nproj debl
0 2 1.0
1 2 1.0
# icmod fcfact rcfact
0 0.25 0.0
# epsh1 epsh2 depsh
-12.0 12.0 0.02
# rlmax drl
4.0 0.01
 0
]]>
</input-file>
</provenance>
<pseudo-atom-spec atomic-label="Be" atomic-number="4" z-pseudo="4"
 flavor="Hamann&apos;s oncvpsp" relativity="scalar" spin-dft="no"
 core-corrections="no">
<annotation pseudo-energy="-13.6747343344" />
<exchange-correlation>
<annotation oncvpsp-xc-code="-1012" oncvpsp-xc-type="libxc-interface" />
<libxc-info number-of-functionals="2">
<functional name="Slater exchange (LDA)" type="exchange" id="1" />
<functional name="Perdew &amp; Wang (LDA)" type="correlation" id="12" />
</libxc-info>
</exchange-correlation>
<valence-configuration total-valence-charge="4">
<shell n="1" l="s" occupation="2" />
<shell n="2" l="s" occupation="2" />
</valence-configuration>
</pseudo-atom-spec>
<grid npts="457">
<annotation type="sampled from oncvpsp log grid"
 recipe="r(i:1..N) = r1*exp(a*(i-1)) + r=0; resampled"
 recipe-cont="r1: scale; a: step" scale="0.125000000000E-03"
 step="0.119285708653E-01" delta="0.500000000000E-02" rmax="44.1813421228" />
<grid-data>
  0.000000000000E+00  5.045089664318E-03  1.007717068006E-02  1.511736293017E-02
  2.012835760545E-02  2.524864506191E-02  3.055809503800E-02  3.568395144868E-02
  4.068727247651E-02  4.584201536434E-02  5.103737331347E-02  5.614775742254E-02
  6.176984548592E-02  6.714908551389E-02  7.299677779476E-02  7.841276441878E-02
  8.423058948002E-02  8.940718115625E-02  9.490191261456E-02  1.007343358937E-01
  1.069252046495E-01  1.121507391337E-01  1.176316503622E-01  1.233804188347E-01
  1.294101349845E-01  1.357345289867E-01  1.423680020228E-01  1.475549990844E-01
  1.529309777861E-01  1.585028234335E-01  1.642776721897E-01  1.702629202147E-01
  1.764662331383E-01  1.828955558777E-01  1.895591228129E-01  1.964654683334E-01
  2.036234377681E-01  2.110421987141E-01  2.161376015599E-01  2.213560278119E-01
  2.267004477474E-01  2.321739033578E-01  2.377795100805E-01  2.435204585719E-01
  2.494000165237E-01  2.554215305226E-01  2.615884279555E-01  2.679042189601E-01
  2.743724984227E-01  2.809969480246E-01  2.877813383377E-01  2.947295309705E-01
  3.018454807663E-01  3.091332380539E-01  3.165969509535E-01  3.242408677373E-01
  3.320693392479E-01  3.400868213747E-01  3.482978775900E-01  3.567071815465E-01
  3.653195197378E-01  3.741397942224E-01  3.831730254141E-01  3.924243549397E-01
  4.018990485653E-01  4.116024991939E-01  4.215402299344E-01  4.265987126936E-01
  4.317178972460E-01  4.368985120129E-01  4.421412941571E-01  4.474469896869E-01
  4.528163535632E-01  4.582501498060E-01  4.637491516036E-01  4.693141414229E-01
  4.749459111199E-01  4.806452620534E-01  4.864130051980E-01  4.922499612604E-01
  4.981569607955E-01  5.041348443251E-01  5.101844624570E-01  5.163066760065E-01
  5.225023561185E-01  5.287723843920E-01  5.351176530047E-01  5.415390648407E-01
  5.480375336188E-01  5.546139840222E-01  5.612693518305E-01  5.680045840525E-01
  5.748206390611E-01  5.817184867298E-01  5.886991085706E-01  5.957634978734E-01
  6.029126598479E-01  6.101476117661E-01  6.174693831073E-01  6.248790157046E-01
  6.323775638930E-01  6.399660946597E-01  6.476456877956E-01  6.554174360492E-01
  6.632824452818E-01  6.712418346252E-01  6.792967366407E-01  6.874482974804E-01
  6.956976770501E-01  7.040460491747E-01  7.124946017648E-01  7.210445369860E-01
  7.296970714298E-01  7.384534362870E-01  7.473148775224E-01  7.562826560527E-01
  7.653580479253E-01  7.745423445004E-01  7.838368526344E-01  7.932428948661E-01
  8.027618096044E-01  8.123949513197E-01  8.221436907355E-01  8.320094150244E-01
  8.419935280047E-01  8.520974503407E-01  8.623226197448E-01  8.726704911817E-01
  8.831425370759E-01  8.937402475208E-01  9.044651304911E-01  9.153187120570E-01
  9.263025366017E-01  9.374181670409E-01  9.486671850454E-01  9.600511912659E-01
  9.715718055611E-01  9.832306672278E-01  9.950294352346E-01  1.006969788457E+00
  1.019053425919E+00  1.031282067030E+00  1.043657451834E+00  1.056181341256E+00
  1.068855517351E+00  1.081681783560E+00  1.094661964962E+00  1.107797908542E+00
  1.121091483444E+00  1.134544581246E+00  1.148159116221E+00  1.161937025615E+00
  1.175880269923E+00  1.189990833162E+00  1.204270723160E+00  1.218721971838E+00
  1.233346635500E+00  1.248146795126E+00  1.263124556667E+00  1.278282051347E+00
  1.293621435963E+00  1.309144893195E+00  1.324854631913E+00  1.340752887496E+00
  1.356841922146E+00  1.373124025212E+00  1.389601513514E+00  1.406276731677E+00
  1.423152052457E+00  1.440229877086E+00  1.457512635611E+00  1.475002787239E+00
  1.492702820685E+00  1.510615254534E+00  1.528742637588E+00  1.547087549239E+00
  1.565652599830E+00  1.584440431028E+00  1.603453716200E+00  1.622695160795E+00
  1.642167502724E+00  1.661873512757E+00  1.681815994910E+00  1.701997786849E+00
  1.722421760291E+00  1.743090821415E+00  1.764007911272E+00  1.785176006207E+00
  1.806598118281E+00  1.828277295701E+00  1.850216623249E+00  1.872419222728E+00
  1.894888253401E+00  1.917626912442E+00  1.940638435391E+00  1.963926096616E+00
  1.987493209775E+00  2.011343128292E+00  2.035479245832E+00  2.059904996782E+00
  2.084623856743E+00  2.109639343024E+00  2.134955015140E+00  2.160574475322E+00
  2.186501369026E+00  2.212739385454E+00  2.239292258080E+00  2.266163765177E+00
  2.293357730359E+00  2.320878023123E+00  2.348728559401E+00  2.376913302113E+00
  2.405436261739E+00  2.434301496880E+00  2.463513114842E+00  2.493075272220E+00
  2.522992175487E+00  2.553268081593E+00  2.583907298572E+00  2.614914186155E+00
  2.646293156389E+00  2.678048674265E+00  2.710185258356E+00  2.742707481457E+00
  2.775619971234E+00  2.808927410889E+00  2.842634539820E+00  2.876746154297E+00
  2.911267108149E+00  2.946202313447E+00  2.981556741208E+00  3.017335422103E+00
  3.053543447168E+00  3.090185968534E+00  3.127268200156E+00  3.164795418558E+00
  3.202772963581E+00  3.241206239144E+00  3.280100714014E+00  3.319461922582E+00
  3.359295465653E+00  3.399607011241E+00  3.440402295375E+00  3.481687122920E+00
  3.523467368395E+00  3.565748976816E+00  3.608537964538E+00  3.651840420112E+00
  3.695662505153E+00  3.740010455215E+00  3.784890580678E+00  3.830309267646E+00
  3.876272978858E+00  3.922788254604E+00  3.969861713659E+00  4.017500054223E+00
  4.065710054874E+00  4.114498575532E+00  4.163872558439E+00  4.213839029140E+00
  4.264405097490E+00  4.315577958659E+00  4.367364894163E+00  4.419773272893E+00
  4.472810552168E+00  4.526484278794E+00  4.580802090140E+00  4.635771715221E+00
  4.691400975804E+00  4.747697787514E+00  4.804670160964E+00  4.862326202895E+00
  4.920674117330E+00  4.979722206738E+00  5.039478873219E+00  5.099952619697E+00
  5.161152051134E+00  5.223085875747E+00  5.285762906256E+00  5.349192061131E+00
  5.413382365865E+00  5.478342954255E+00  5.544083069706E+00  5.610612066543E+00
  5.677939411341E+00  5.746074684278E+00  5.815027580489E+00  5.884807911455E+00
  5.955425606392E+00  6.026890713669E+00  6.099213402233E+00  6.172403963060E+00
  6.246472810616E+00  6.321430484344E+00  6.397287650156E+00  6.474055101958E+00
  6.551743763181E+00  6.630364688340E+00  6.709929064600E+00  6.790448213375E+00
  6.871933591935E+00  6.954396795039E+00  7.037849556579E+00  7.122303751258E+00
  7.207771396273E+00  7.294264653028E+00  7.381795828865E+00  7.470377378811E+00
  7.560021907357E+00  7.650742170245E+00  7.742551076288E+00  7.835461689203E+00
  7.929487229474E+00  8.024641076228E+00  8.120936769142E+00  8.218388010372E+00
  8.317008666496E+00  8.416812770494E+00  8.517814523740E+00  8.620028298025E+00
  8.723468637602E+00  8.828150261253E+00  8.934088064388E+00  9.041297121160E+00
  9.149792686614E+00  9.259590198854E+00  9.370705281240E+00  9.483153744615E+00
  9.596951589550E+00  9.712115008625E+00  9.828660388728E+00  9.946604313393E+00
  1.006596356515E+01  1.018675512794E+01  1.030899618947E+01  1.043270414374E+01
  1.055789659347E+01  1.068459135259E+01  1.081280644882E+01  1.094256012621E+01
  1.107387084772E+01  1.120675729790E+01  1.134123838547E+01  1.147733324610E+01
  1.161506124505E+01  1.175444197999E+01  1.189549528375E+01  1.203824122715E+01
  1.218270012188E+01  1.232889252334E+01  1.247683923362E+01  1.262656130443E+01
  1.277808004008E+01  1.293141700056E+01  1.308659400457E+01  1.324363313262E+01
  1.340255673021E+01  1.356338741098E+01  1.372614805991E+01  1.389086183663E+01
  1.405755217867E+01  1.422624280481E+01  1.439695771847E+01  1.456972121109E+01
  1.474455786562E+01  1.492149256001E+01  1.510055047073E+01  1.528175707638E+01
  1.546513816130E+01  1.565071981923E+01  1.583852845706E+01  1.602859079855E+01
  1.622093388813E+01  1.641558509479E+01  1.661257211592E+01  1.681192298131E+01
  1.701366605709E+01  1.721783004978E+01  1.742444401037E+01  1.763353733850E+01
  1.784513978656E+01  1.805928146400E+01  1.827599284157E+01  1.849530475566E+01
  1.871724841273E+01  1.894185539369E+01  1.916915765841E+01  1.939918755031E+01
  1.963197780091E+01  1.986756153453E+01  2.010597227294E+01  2.034724394022E+01
  2.059141086750E+01  2.083850779791E+01  2.108856989148E+01  2.134163273018E+01
  2.159773232294E+01  2.185690511082E+01  2.211918797215E+01  2.238461822781E+01
  2.265323364655E+01  2.292507245031E+01  2.320017331971E+01  2.347857539955E+01
  2.376031830434E+01  2.404544212399E+01  2.433398742948E+01  2.462599527863E+01
  2.492150722198E+01  2.522056530864E+01  2.552321209235E+01  2.582949063745E+01
  2.613944452510E+01  2.645311785940E+01  2.677055527372E+01  2.709180193700E+01
  2.741690356025E+01  2.774590640297E+01  2.807885727980E+01  2.841580356716E+01
  2.875679320997E+01  2.910187472849E+01  2.945109722523E+01  2.980451039193E+01
  3.016216451664E+01  3.052411049083E+01  3.089039981672E+01  3.126108461453E+01
  3.163621762990E+01  3.201585224146E+01  3.240004246836E+01  3.278884297798E+01
  3.318230909371E+01  3.358049680284E+01  3.398346276447E+01  3.439126431764E+01
  3.480395948946E+01  3.522160700333E+01  3.564426628737E+01  3.607199748282E+01
  3.650486145261E+01  3.694291979004E+01  3.738623482752E+01  3.783486964545E+01
  3.828888808120E+01  3.874835473817E+01  3.921333499503E+01  3.968389501497E+01
  4.016010175515E+01  4.064202297621E+01  4.112972725193E+01  4.162328397895E+01
  4.212276338670E+01  4.262823654734E+01  4.313977538591E+01  4.365745269054E+01
  4.418134212282E+01
</grid-data>
</grid>
<valence-charge total-charge="4" is-unscreening-charge="yes"
 rescaled-to-z-pseudo="no">
<radfunc>
<data npts="457">
  5.939771691776E+01  5.938902038946E+01  5.936302756737E+01  5.931967751716E+01
  5.925943718314E+01  5.918028255942E+01  5.907949153829E+01  5.896420161130E+01
  5.883472909527E+01  5.868395567128E+01  5.851428170840E+01  5.833018631281E+01
  5.810815300301E+01  5.787679517646E+01  5.760457496515E+01  5.733347030817E+01
  5.702223038397E+01  5.672814075185E+01  5.639861073819E+01  5.602962698072E+01
  5.561679047924E+01  5.525173379093E+01  5.485289489738E+01  5.441744992496E+01
  5.394240203502E+01  5.342458474421E+01  5.286066915403E+01  5.240539264538E+01
  5.192071372434E+01  5.140507822584E+01  5.085690268230E+01  5.027458303236E+01
  4.965650514051E+01  4.900105733559E+01  4.830664518276E+01  4.757170870571E+01
  4.679474227251E+01  4.597431734749E+01  4.540256406676E+01  4.481054251584E+01
  4.419792136115E+01  4.356440391547E+01  4.290973290597E+01  4.223369553345E+01
  4.153612881533E+01  4.081692520038E+01  4.007603843756E+01  3.931348967515E+01
  3.852937375914E+01  3.772386569221E+01  3.689722720565E+01  3.604981338728E+01
  3.518207929786E+01  3.429458649762E+01  3.338800939258E+01  3.246314129836E+01
  3.152090010632E+01  3.056233342434E+01  2.958862305214E+01  2.860108863876E+01
  2.760119035932E+01  2.659053043819E+01  2.557085333871E+01  2.454404443457E+01
  2.351212697693E+01  2.247725717429E+01  2.144171721004E+01  2.092444132843E+01
  2.040790603707E+01  1.989242755262E+01  1.937832780899E+01  1.886593395917E+01
  1.835557783656E+01  1.784759537597E+01  1.734232599417E+01  1.684011193034E+01
  1.634129754701E+01  1.584622859227E+01  1.535525142430E+01  1.486871219980E+01
  1.438695602780E+01  1.391032609113E+01  1.343916273777E+01  1.297380254503E+01
  1.251457735940E+01  1.206181331582E+01  1.161582984009E+01  1.117693863864E+01
  1.074544268026E+01  1.032163517483E+01  9.905798554105E+00  9.498203460480E+00
  9.099107749347E+00  8.708755511454E+00  8.327376121575E+00  7.955183320166E+00
  7.592374334779E+00  7.239129048126E+00  6.895609219716E+00  6.561957768001E+00
  6.238298119841E+00  5.924733633979E+00  5.621347104957E+00  5.328200353596E+00
  5.045333909761E+00  4.772766792650E+00  4.510496393252E+00  4.258498462992E+00
  4.016727211796E+00  3.785115518013E+00  3.563575251700E+00  3.351997711825E+00
  3.150254176875E+00  2.958196567299E+00  2.775658217055E+00  2.602454750395E+00
  2.438385058833E+00  2.283232372096E+00  2.136765415703E+00  1.998739646731E+00
  1.868898558268E+00  1.746975042138E+00  1.632692798585E+00  1.525767780912E+00
  1.425909662467E+00  1.332823312931E+00  1.246210270623E+00  1.165770197463E+00
  1.091202303343E+00  1.022206727010E+00  9.584858610897E-01  8.997456096032E-01
  8.456965672784E-01  7.960551110769E-01  7.505443956385E-01  7.088952457981E-01
  6.708469408940E-01  6.361478872620E-01  6.045561770454E-01  5.758400332274E-01
  5.497781425692E-01  5.261598798717E-01  5.047854286405E-01  4.854658047768E-01
  4.680227913070E-01  4.522887933671E-01  4.381066236300E-01  4.253292290862E-01
  4.138193705186E-01  4.034492661410E-01  3.941002106656E-01  3.856621805294E-01
  3.780334351333E-01  3.711201227456E-01  3.648358982104E-01  3.591015578231E-01
  3.538446947393E-01  3.489993761397E-01  3.445058411702E-01  3.403102165179E-01
  3.363642444875E-01  3.326250167331E-01  3.290547055124E-01  3.256202835893E-01
  3.222932238252E-01  3.190490487985E-01  3.158663830858E-01  3.127257996486E-01
  3.096096800660E-01  3.065021776708E-01  3.033891028958E-01  3.002578418523E-01
  2.970972718190E-01  2.938976793031E-01  2.906506802262E-01  2.873491422692E-01
  2.839871094110E-01  2.805597286812E-01  2.770631791484E-01  2.734946031506E-01
  2.698520397771E-01  2.661343605995E-01  2.623412076483E-01  2.584729336271E-01
  2.545305443488E-01  2.505156433804E-01  2.464303788740E-01  2.422773925626E-01
  2.380597708942E-01  2.337809982766E-01  2.294449124021E-01  2.250556616210E-01
  2.206176643290E-01  2.161355703329E-01  2.116142241594E-01  2.070586302674E-01
  2.024739201262E-01  1.978653211184E-01  1.932381272294E-01  1.885976714795E-01
  1.839493000600E-01  1.792983481282E-01  1.746501172219E-01  1.700098542482E-01
  1.653827320057E-01  1.607738311951E-01  1.561881238769E-01  1.516304583308E-01
  1.471055452751E-01  1.426179454015E-01  1.381720581824E-01  1.337721119062E-01
  1.294221548984E-01  1.251260478838E-01  1.208874574465E-01  1.167098505449E-01
  1.125964900376E-01  1.085504311770E-01  1.045745190278E-01  1.006713867669E-01
  9.684345482213E-02  9.309293080736E-02  8.942181021046E-02  8.583187779331E-02
  8.232470966108E-02  7.890167595950E-02  7.556394415897E-02  7.231248288473E-02
  6.914806625287E-02  6.607127867249E-02  6.308252007481E-02  6.018201153073E-02
  5.736980121907E-02  5.464577070828E-02  5.200964151550E-02  4.946098190727E-02
  4.699921390746E-02  4.462362047876E-02  4.233335284499E-02  4.012743792272E-02
  3.800478583147E-02  3.596419745242E-02  3.400437201141E-02  3.212391465045E-02
  3.032134397081E-02  2.859509951854E-02  2.694354918979E-02  2.536499653405E-02
  2.385768793431E-02  2.241981964493E-02  2.104954466894E-02  1.974497945803E-02
  1.850421041987E-02  1.732530021851E-02  1.620629385537E-02  1.514522451915E-02
  1.414011919476E-02  1.318900402234E-02  1.228990939907E-02  1.144087481734E-02
  1.063995343450E-02  9.885216370248E-03  9.174756729297E-03  8.506693347729E-03
  7.879174262853E-03  7.290379907311E-03  6.738526029272E-03  6.221866341525E-03
  5.738694903244E-03  5.287348239079E-03  4.866207201086E-03  4.473698579799E-03
  4.108296471470E-03  3.768523409209E-03  3.452951266346E-03  3.160201940927E-03
  2.888947830738E-03  2.637912108697E-03  2.405868808826E-03  2.191642733349E-03
  1.994109191679E-03  1.812193582287E-03  1.644870828555E-03  1.491164679786E-03
  1.350146888564E-03  1.220936275625E-03  1.102697693254E-03  9.946408981469E-04
  8.960193444042E-04  8.061289071240E-04  7.243065467511E-04  6.499289240148E-04
  5.824109749199E-04  5.212044548563E-04  4.657964604636E-04  4.157079374360E-04
  3.704921819739E-04  3.297333431031E-04  2.930449325730E-04  2.600683485356E-04
  2.304714186891E-04  2.039469680476E-04  1.802114159860E-04  1.590034066961E-04
  1.400824766881E-04  1.232277624830E-04  1.082367511689E-04  9.492407603268E-05
  8.312035904716E-05  7.267110157325E-05  6.343562424782E-05  5.528605665859E-05
  4.810637706580E-05  4.179150211492E-05  3.624642619546E-05  3.138540983949E-05
  2.713121631833E-05  2.341439538780E-05  2.017261295022E-05  1.735002524456E-05
  1.489669604410E-05  1.276805523152E-05  1.092439703541E-05  9.330416145697E-06
  7.954779879539E-06  6.769734540964E-06  5.750744105627E-06  4.876159365465E-06
  4.126915684697E-06  3.486257547330E-06  2.939488115505E-06  2.473742066202E-06
  2.077780029651E-06  1.741803014963E-06  1.457285275720E-06  1.216824139364E-06
  1.014005398242E-06  8.432829359140E-07  6.998713391120E-07  5.796503226228E-07
  4.790798706789E-07  3.951250735809E-07  3.251897116710E-07  2.670577099956E-07
  2.188416556642E-07  1.789376357206E-07  1.459857160667E-07  1.188354414487E-07
  9.651579261311E-08  7.820908940859E-08  6.322837783095E-08  5.099788480164E-08
  4.103616689790E-08  3.294161839315E-08  2.638003993251E-08  2.107400208577E-08
  1.679376803126E-08  1.334956688270E-08  1.058503383717E-08  8.371655560551E-09
  6.604079205170E-09  5.196161336689E-09  4.077648999086E-09  3.191399325011E-09
  2.491056658447E-09  1.939117243577E-09  1.505321287438E-09  1.165320755471E-09
  8.995787313042E-10  6.924626790608E-10  5.314995939530E-10  4.067659117900E-10
  3.103892591369E-10  2.361427439097E-10  1.791155842276E-10  1.354465171658E-10
  1.021086776257E-10  7.673654347484E-11  5.748715311071E-11  4.292915699670E-11
  3.195440183428E-11  2.370769675553E-11  1.753120303465E-11  1.292054649175E-11
  9.490295898520E-12  6.946899307774E-12  5.067538771636E-12  3.683665596379E-12
  2.668224343602E-12  1.925773755035E-12  1.384874691056E-12  9.922457896014E-13
  7.082925295106E-13  5.036994366439E-13  3.568422176787E-13  2.518298822181E-13
  1.770290839364E-13  1.239561609473E-13  8.644846840878E-14  6.004702295551E-14
  4.153839301806E-14  2.861611792568E-14  1.963148157220E-14  1.341081044293E-14
  9.122094009812E-15  6.178020566525E-15  4.165785291805E-15  2.796496657818E-15
  1.868867451887E-15  1.243271764627E-15  8.232909295080E-16  5.426456260096E-16
  3.559842087185E-16  2.324192254485E-16  1.510133688326E-16  9.764176276995E-17
  6.282134478124E-17  4.021651864507E-17  2.561540671976E-17  1.623196784032E-17
  1.023263544854E-17  6.416869305951E-18  4.002680027877E-18  2.483378036588E-18
  1.532396091406E-18  9.403880226696E-19  5.738815532098E-19  3.482470761802E-19
  2.101228504993E-19  1.260520343384E-19  7.517734618945E-20  4.457116819358E-20
  2.626758482763E-20  0.000000000000E+00  0.000000000000E+00  0.000000000000E+00
  0.000000000000E+00  0.000000000000E+00  0.000000000000E+00  0.000000000000E+00
  0.000000000000E+00  0.000000000000E+00  0.000000000000E+00  0.000000000000E+00
  0.000000000000E+00  0.000000000000E+00  0.000000000000E+00  0.000000000000E+00
  0.000000000000E+00  0.000000000000E+00  0.000000000000E+00  0.000000000000E+00
  0.000000000000E+00  0.000000000000E+00  0.000000000000E+00  0.000000000000E+00
  0.000000000000E+00
</data>
</radfunc>
</valence-charge>
<semilocal-potentials set="scalar_relativistic">
<slps n="1" l="s" rc="1.35684192215" eref="-3.85671679779">
<radfunc>
<data npts="256">
 -1.665460634789E+01 -1.665404523898E+01 -1.665236777034E+01 -1.664956871332E+01
 -1.664567609663E+01 -1.664055599910E+01 -1.663402766092E+01 -1.662654822965E+01
 -1.661813339891E+01 -1.660831365698E+01 -1.659723642874E+01 -1.658518575451E+01
 -1.657060719698E+01 -1.655536424203E+01 -1.653736034841E+01 -1.651935572142E+01
 -1.649859302853E+01 -1.647888254329E+01 -1.645668954117E+01 -1.643170336288E+01
 -1.640357499249E+01 -1.637854808046E+01 -1.635103762629E+01 -1.632079950504E+01
 -1.628756605409E+01 -1.625104389106E+01 -1.621091154527E+01 -1.617823250651E+01
 -1.614316459194E+01 -1.610553575776E+01 -1.606516192793E+01 -1.602184619962E+01
 -1.597537800170E+01 -1.592553220428E+01 -1.587206817692E+01 -1.581472879337E+01
 -1.575323938037E+01 -1.568730660843E+01 -1.564072910237E+01 -1.559194008929E+01
 -1.554083730760E+01 -1.548731399277E+01 -1.543125869630E+01 -1.537255509873E+01
 -1.531108181665E+01 -1.524671220371E+01 -1.517931414557E+01 -1.510874984900E+01
 -1.503487562526E+01 -1.495754166799E+01 -1.487659182611E+01 -1.479186337212E+01
 -1.470318676686E+01 -1.461038542140E+01 -1.451327545780E+01 -1.441166547018E+01
 -1.430535628857E+01 -1.419414074840E+01 -1.407780346928E+01 -1.395612064766E+01
 -1.382885986931E+01 -1.369577994871E+01 -1.355663080438E+01 -1.341115338130E+01
 -1.325907963408E+01 -1.310013258782E+01 -1.293402649714E+01 -1.284819718308E+01
 -1.276046712883E+01 -1.267079830058E+01 -1.257915219879E+01 -1.248548988298E+01
 -1.238977200066E+01 -1.229195882067E+01 -1.219201027169E+01 -1.208988598620E+01
 -1.198554535067E+01 -1.187894756247E+01 -1.177005169439E+01 -1.165881676740E+01
 -1.154520183254E+01 -1.142916606301E+01 -1.131066885719E+01 -1.118966995406E+01
 -1.106612956193E+01 -1.094000850205E+01 -1.081126836837E+01 -1.067987170511E+01
 -1.054578220386E+01 -1.040896492206E+01 -1.026938652484E+01 -1.012701555245E+01
 -9.981822715622E+00 -9.833781221406E+00 -9.682867132213E+00 -9.529059761013E+00
 -9.372342105822E+00 -9.212701326824E+00 -9.050129269693E+00 -8.884623038874E+00
 -8.716185624765E+00 -8.544826588951E+00 -8.370562811749E+00 -8.193419306469E+00
 -8.013430104854E+00 -7.830639218157E+00 -7.645101678220E+00 -7.456884662749E+00
 -7.266068708626E+00 -7.072749016597E+00 -6.877036849981E+00 -6.679061029038E+00
 -6.478969521403E+00 -6.276931127280E+00 -6.073137256058E+00 -5.867803788339E+00
 -5.661173014192E+00 -5.453515634510E+00 -5.245132807635E+00 -5.036358217828E+00
 -4.827560135522E+00 -4.619143431668E+00 -4.411551499597E+00 -4.205268027815E+00
 -4.000818555877E+00 -3.798771733119E+00 -3.599740186586E+00 -3.404380890314E+00
 -3.213394913514E+00 -3.027526410705E+00 -2.847560703173E+00 -2.674321289206E+00
 -2.508665611478E+00 -2.351479405151E+00 -2.203669451232E+00 -2.066154568136E+00
 -1.939854692131E+00 -1.825677925868E+00 -1.724505475161E+00 -1.637174448349E+00
 -1.564458560403E+00 -1.507046864635E+00 -1.465520726723E+00 -1.440329355559E+00
 -1.431764308723E+00 -1.439933491256E+00 -1.464735258000E+00 -1.505833304543E+00
 -1.562633082289E+00 -1.634260492820E+00 -1.719543600915E+00 -1.816998052667E+00
 -1.924816797523E+00 -2.040864597871E+00 -2.162677679723E+00 -2.287468751217E+00
 -2.412137515755E+00 -2.533286762102E+00 -2.647244157289E+00 -2.750090035423E+00
 -2.837691804313E+00 -2.905746120690E+00 -2.949830751089E+00 -2.965469071632E+00
 -2.948211487010E+00 -2.913072292225E+00 -2.878529692750E+00 -2.844396697852E+00
 -2.810668455926E+00 -2.777340165633E+00 -2.744407083924E+00 -2.711864523857E+00
 -2.679707854091E+00 -2.647932498229E+00 -2.616533934171E+00 -2.585507693468E+00
 -2.554849360686E+00 -2.524554572779E+00 -2.494619018464E+00 -2.465038437611E+00
 -2.435808620632E+00 -2.406925407883E+00 -2.378384689068E+00 -2.350182402656E+00
 -2.322314535299E+00 -2.294777121262E+00 -2.267566241853E+00 -2.240678024869E+00
 -2.214108644040E+00 -2.187854318483E+00 -2.161911312166E+00 -2.136275933371E+00
 -2.110944534171E+00 -2.085913509908E+00 -2.061179298677E+00 -2.036738380822E+00
 -2.012587278433E+00 -1.988722554848E+00 -1.965140814166E+00 -1.941838700759E+00
 -1.918812898801E+00 -1.896060131786E+00 -1.873577162070E+00 -1.851360790403E+00
 -1.829407855476E+00 -1.807715233473E+00 -1.786279837621E+00 -1.765098617754E+00
 -1.744168559877E+00 -1.723486685738E+00 -1.703050052403E+00 -1.682855751837E+00
 -1.662900910489E+00 -1.643182688885E+00 -1.623698281222E+00 -1.604444914971E+00
 -1.585419850477E+00 -1.566620380575E+00 -1.548043830202E+00 -1.529687556015E+00
 -1.511548946017E+00 -1.493625419185E+00 -1.475914425100E+00 -1.458413443588E+00
 -1.441119984358E+00 -1.424031586649E+00 -1.407145818880E+00 -1.390460278303E+00
 -1.373972590663E+00 -1.357680409857E+00 -1.341581417603E+00 -1.325673323110E+00
 -1.309953862749E+00 -1.294420799733E+00 -1.279071923801E+00 -1.263905050899E+00
 -1.248918022871E+00 -1.234108707153E+00 -1.219474996469E+00 -1.205014808531E+00
 -1.190726085742E+00 -1.176606794903E+00 -1.162654926926E+00 -1.148868496545E+00
 -1.135245542037E+00 -1.121784124938E+00 -1.108482329773E+00 -1.095338263780E+00
 -1.082350056638E+00 -1.069515860209E+00 -1.056833848265E+00 -1.044302216237E+00
 -1.031919180953E+00 -1.019682980384E+00 -1.007591873397E+00 -9.956441395049E-01
</data>
</radfunc>
</slps>
<slps n="2" l="p" rc="1.10779790854" eref="-0.383029008774E-08">
<radfunc>
<data npts="256">
 -1.167275587702E+01 -1.167268219052E+01 -1.167246063976E+01 -1.167208671532E+01
 -1.167155790019E+01 -1.167084677567E+01 -1.166991451501E+01 -1.166881138536E+01
 -1.166752576860E+01 -1.166596623328E+01 -1.166413085001E+01 -1.166204316721E+01
 -1.165939183183E+01 -1.165647382189E+01 -1.165283726422E+01 -1.164899710039E+01
 -1.164431927768E+01 -1.163963458571E+01 -1.163407952339E+01 -1.162747534709E+01
 -1.161960473697E+01 -1.161222077772E+01 -1.160369768875E+01 -1.159384804079E+01
 -1.158245352590E+01 -1.156926031686E+01 -1.155397392281E+01 -1.154093238058E+01
 -1.152635999944E+01 -1.151007590239E+01 -1.149187958363E+01 -1.147154933868E+01
 -1.144884071708E+01 -1.142348504485E+01 -1.139518807694E+01 -1.136362885449E+01
 -1.132845885841E+01 -1.128930156928E+01 -1.126078296170E+01 -1.123018645805E+01
 -1.119738029607E+01 -1.116222781226E+01 -1.112458781850E+01 -1.108431508882E+01
 -1.104126096874E+01 -1.099527412002E+01 -1.094620141341E+01 -1.089388898139E+01
 -1.083818344184E+01 -1.077893330186E+01 -1.071599054865E+01 -1.064921243088E+01
 -1.057846342984E+01 -1.050361741415E+01 -1.042455996503E+01 -1.034119085094E+01
 -1.025342662083E+01 -1.016120327390E+01 -1.006447895107E+01 -9.963236579099E+00
 -9.857486383157E+00 -9.747268167456E+00 -9.632653247457E+00 -9.513745901913E+00
 -9.390684199720E+00 -9.263640046819E+00 -9.132818294223E+00 -9.066063378399E+00
 -8.998454751837E+00 -8.930026199840E+00 -8.860812966754E+00 -8.790851580099E+00
 -8.720179652097E+00 -8.648835658663E+00 -8.576858696238E+00 -8.504288217224E+00
 -8.431163745205E+00 -8.357524571597E+00 -8.283409435907E+00 -8.208856192302E+00
 -8.133901465852E+00 -8.058580302376E+00 -7.982925816555E+00 -7.906968843620E+00
 -7.830737600662E+00 -7.754257364278E+00 -7.677550171989E+00 -7.600634555481E+00
 -7.523525314345E+00 -7.446233339475E+00 -7.368765495733E+00 -7.291124573715E+00
 -7.213309320593E+00 -7.135314559898E+00 -7.057131409755E+00 -6.978747608518E+00
 -6.900147955756E+00 -6.821314875333E+00 -6.742229105614E+00 -6.662870519781E+00
 -6.583219076682E+00 -6.503255899673E+00 -6.422964477442E+00 -6.342331976839E+00
 -6.261350653366E+00 -6.180019340162E+00 -6.098344991112E+00 -6.016344248286E+00
 -5.934044998249E+00 -5.851487876175E+00 -5.768727671157E+00 -5.685834581005E+00
 -5.602895260330E+00 -5.520013602090E+00 -5.437311190457E+00 -5.354927362080E+00
 -5.273018814007E+00 -5.191758700059E+00 -5.111335163661E+00 -5.031949264390E+00
 -4.953812268017E+00 -4.877142285895E+00 -4.802160269109E+00 -4.729085385885E+00
 -4.658129837015E+00 -4.589493193071E+00 -4.523356368129E+00 -4.459875376759E+00
 -4.399175052790E+00 -4.341342938470E+00 -4.286423579321E+00 -4.234413481521E+00
 -4.185257002965E+00 -4.138843454496E+00 -4.095005682248E+00 -4.053520384016E+00
 -4.014110380944E+00 -3.976449019524E+00 -3.940166817970E+00 -3.904860395465E+00
 -3.870103633936E+00 -3.835460921365E+00 -3.800502216030E+00 -3.764819555724E+00
 -3.728044519294E+00 -3.689866034993E+00 -3.650047827108E+00 -3.608444706259E+00
 -3.566101139148E+00 -3.524217724213E+00 -3.482760205277E+00 -3.441731565100E+00
 -3.401134596869E+00 -3.360971791708E+00 -3.321245242279E+00 -3.281956562228E+00
 -3.243106820586E+00 -3.204696490020E+00 -3.166725407751E+00 -3.129192748212E+00
 -3.092097006883E+00 -3.055435995219E+00 -3.019206847112E+00 -2.983406037757E+00
 -2.948029416178E+00 -2.913072292225E+00 -2.878529692750E+00 -2.844396697852E+00
 -2.810668455926E+00 -2.777340165633E+00 -2.744407083924E+00 -2.711864523857E+00
 -2.679707854091E+00 -2.647932498229E+00 -2.616533934171E+00 -2.585507693468E+00
 -2.554849360686E+00 -2.524554572779E+00 -2.494619018464E+00 -2.465038437611E+00
 -2.435808620632E+00 -2.406925407883E+00 -2.378384689068E+00 -2.350182402656E+00
 -2.322314535299E+00 -2.294777121262E+00 -2.267566241853E+00 -2.240678024869E+00
 -2.214108644040E+00 -2.187854318483E+00 -2.161911312166E+00 -2.136275933371E+00
 -2.110944534171E+00 -2.085913509908E+00 -2.061179298677E+00 -2.036738380822E+00
 -2.012587278433E+00 -1.988722554848E+00 -1.965140814166E+00 -1.941838700759E+00
 -1.918812898801E+00 -1.896060131786E+00 -1.873577162070E+00 -1.851360790403E+00