<?xml version="1.0" encoding="UTF-8" ?>
<psml version="1.1" energy_unit="hartree" length_unit="bohr"
 uuid="fb8fd860-23d3-11e8-47d9-d335af71544a"
 xmlns="http://esl.cecam.org/PSML/ns/1.1">
<provenance creator="ONCVPSP-3.3.0+psml-3.3.0-73 (scalar-relativistic)"
 date="2018-03-09">
<annotation action="semilocal-pseudopotential-generation"
 action-cont="projectors-generation" />
<input-file name="oncvpsp-input">
<![CDATA[# atsym z nc nv iexc psfile
Bi 83 12 3 -001012 upf
# n l f
1 0 2.0
2 0 2.0
2 1 6.0
3 0 2.0
3 1 6.0
3 2 10.0
4 0 2.0
4 1 6.0
4 2 10.0
5 0 2.0
5 1 6.0
4 3 14.0
5 2 10.0
6 0 2.0
6 1 3.0
# lmax
2
# l rc ep ncon nbas qcut
0 2.4 0.0 4 7 3.6
1 2.5 0.0 4 7 4.5
2 2.1 0.0 4 7 8.7
# lloc lpopt rc5 dvloc0
4 5 2.0 0.0
# l nproj debl
0 2 2.5
1 2 2.5
2 2 1.2
# icmod fcfact rcfact
3 6.0 1.34
# epsh1 epsh2 depsh
-12.0 12.0 0.02
# rlmax drl
6.0 0.01
 0
]]>
</input-file>
</provenance>
<pseudo-atom-spec atomic-label="Bi" atomic-number="83" z-pseudo="15"
 flavor="Hamann&apos;s oncvpsp" relativity="scalar" spin-dft="no"
 core-corrections="yes">
<annotation pseudo-energy="-71.3173853989" />
<exchange-correlation>
<annotation oncvpsp-xc-code="-1012" oncvpsp-xc-type="libxc-interface" />
<libxc-info number-of-functionals="2">
<functional name="Slater exchange (LDA)" type="exchange" id="1" />
<functional name="Perdew &amp; Wang (LDA)" type="correlation" id="12" />
</libxc-info>
</exchange-correlation>
<valence-configuration total-valence-charge="15">
<shell n="5" l="d" occupation="10" />
<shell n="6" l="s" occupation="2" />
<shell n="6" l="p" occupation="3" />
</valence-configuration>
</pseudo-atom-spec>
<grid npts="457">
<annotation type="sampled from oncvpsp log grid"
 recipe="r(i:1..N) = r1*exp(a*(i-1)) + r=0; resampled"
 recipe-cont="r1: scale; a: step" scale="0.602409638554E-05"
 step="0.119285708653E-01" delta="0.500000000000E-02" rmax="44.0626872033" />
<grid-data>
  0.000000000000E+00  5.031540399417E-03  1.005010708672E-02  1.507676322460E-02
  2.031519180407E-02  2.548300647672E-02  3.084173950167E-02  3.601517482036E-02
  4.106493736582E-02  4.626752728992E-02  5.151110926994E-02  5.666892867097E-02
  6.234320173317E-02  6.777237261092E-02  7.280073515825E-02  7.820217642384E-02
  8.400437693564E-02  8.916706618068E-02  9.464704080075E-02  1.004638003250E-01
  1.066380426725E-01  1.118495432830E-01  1.173157347894E-01  1.230490641731E-01
  1.290625867116E-01  1.353699957055E-01  1.419856536601E-01  1.471587203454E-01
  1.525202611353E-01  1.580771428440E-01  1.638364824694E-01  1.698056563082E-01
  1.759923094030E-01  1.824043653339E-01  1.890500363665E-01  1.959378339698E-01
  2.030765797176E-01  2.104754165862E-01  2.155571350442E-01  2.207615465127E-01
  2.260916132918E-01  2.315503692031E-01  2.371409213171E-01  2.428664517214E-01
  2.487302193317E-01  2.547355617473E-01  2.608858971501E-01  2.671847262509E-01
  2.736356342815E-01  2.802422930356E-01  2.870084629587E-01  2.939379952883E-01
  3.010348342466E-01  3.083030192846E-01  3.157466873822E-01  3.233700754024E-01
  3.311775225029E-01  3.391734726062E-01  3.473624769288E-01  3.557491965718E-01
  3.643384051738E-01  3.731349916283E-01  3.821439628662E-01  3.913704467057E-01
  4.008196947709E-01  4.104970854815E-01  4.204081271133E-01  4.254530246387E-01
  4.305584609344E-01  4.357251624656E-01  4.409538644152E-01  4.462453107881E-01
  4.516002545176E-01  4.570194575718E-01  4.625036910627E-01  4.680537353554E-01
  4.736703801797E-01  4.793544247418E-01  4.851066778387E-01  4.909279579728E-01
  4.968190934685E-01  5.027809225901E-01  5.088142936612E-01  5.149200651851E-01
  5.210991059673E-01  5.273522952389E-01  5.336805227818E-01  5.400846890552E-01
  5.465657053239E-01  5.531244937877E-01  5.597619877132E-01  5.664791315658E-01
  5.732768811445E-01  5.801562037183E-01  5.871180781629E-01  5.941634951008E-01
  6.012934570421E-01  6.085089785266E-01  6.158110862689E-01  6.232008193041E-01
  6.306792291358E-01  6.382473798854E-01  6.459063484440E-01  6.536572246253E-01
  6.615011113208E-01  6.694391246567E-01  6.774723941526E-01  6.856020628824E-01
  6.938292876370E-01  7.021552390886E-01  7.105811019577E-01  7.191080751812E-01
  7.277373720834E-01  7.364702205484E-01  7.453078631950E-01  7.542515575533E-01
  7.633025762439E-01  7.724622071589E-01  7.817317536448E-01  7.911125346885E-01
  8.006058851048E-01  8.102131557260E-01  8.199357135947E-01  8.297749421579E-01
  8.397322414638E-01  8.498090283613E-01  8.600067367017E-01  8.703268175421E-01
  8.807707393526E-01  8.913399882248E-01  9.020360680835E-01  9.128605009005E-01
  9.238148269113E-01  9.349006048343E-01  9.461194120923E-01  9.574728450374E-01
  9.689625191778E-01  9.805900694080E-01  9.923571502409E-01  1.004265436044E+00
  1.016316621276E+00  1.028512420732E+00  1.040854569780E+00  1.053344824618E+00
  1.065984962513E+00  1.078776782063E+00  1.091722103448E+00  1.104822768689E+00
  1.118080641914E+00  1.131497609617E+00  1.145075580932E+00  1.158816487903E+00
  1.172722285758E+00  1.186794953187E+00  1.201036492625E+00  1.215448930537E+00
  1.230034317703E+00  1.244794729516E+00  1.259732266270E+00  1.274849053465E+00
  1.290147242107E+00  1.305629009012E+00  1.321296557120E+00  1.337152115806E+00
  1.353197941195E+00  1.369436316490E+00  1.385869552288E+00  1.402499986915E+00
  1.419329986758E+00  1.436361946599E+00  1.453598289958E+00  1.471041469438E+00
  1.488693967071E+00  1.506558294676E+00  1.524636994212E+00  1.542932638143E+00
  1.561447829800E+00  1.580185203758E+00  1.599147426203E+00  1.618337195317E+00
  1.637757241661E+00  1.657410328561E+00  1.677299252504E+00  1.697426843534E+00
  1.717795965656E+00  1.738409517244E+00  1.759270431451E+00  1.780381676629E+00
  1.801746256748E+00  1.823367211829E+00  1.845247618371E+00  1.867390589792E+00
  1.889799276869E+00  1.912476868191E+00  1.935426590610E+00  1.958651709697E+00
  1.982155530213E+00  2.005941396576E+00  2.030012693335E+00  2.054372845655E+00
  2.079025319803E+00  2.103973623640E+00  2.129221307124E+00  2.154771962810E+00
  2.180629226363E+00  2.206796777080E+00  2.233278338405E+00  2.260077678465E+00
  2.287198610607E+00  2.314644993934E+00  2.342420733862E+00  2.370529782668E+00
  2.398976140060E+00  2.427763853741E+00  2.456897019986E+00  2.486379784225E+00
  2.516216341636E+00  2.546410937736E+00  2.576967868988E+00  2.607891483416E+00
  2.639186181217E+00  2.670856415392E+00  2.702906692377E+00  2.735341572685E+00
  2.768165671557E+00  2.801383659616E+00  2.835000263531E+00  2.869020266694E+00
  2.903448509894E+00  2.938289892013E+00  2.973549370717E+00  3.009231963166E+00
  3.045342746724E+00  3.081886859684E+00  3.118869502001E+00  3.156295936025E+00
  3.194171487257E+00  3.232501545104E+00  3.271291563645E+00  3.310547062409E+00
  3.350273627158E+00  3.390476910684E+00  3.431162633612E+00  3.472336585215E+00
  3.514004624238E+00  3.556172679729E+00  3.598846751885E+00  3.642032912908E+00
  3.685737307863E+00  3.729966155557E+00  3.774725749424E+00  3.820022458417E+00
  3.865862727918E+00  3.912253080653E+00  3.959200117621E+00  4.006710519032E+00
  4.054791045261E+00  4.103448537804E+00  4.152689920258E+00  4.202522199301E+00
  4.252952465692E+00  4.303987895281E+00  4.355635750024E+00  4.407903379024E+00
  4.460798219573E+00  4.514327798207E+00  4.568499731786E+00  4.623321728567E+00
  4.678801589310E+00  4.734947208382E+00  4.791766574882E+00  4.849267773781E+00
  4.907458987066E+00  4.966348494911E+00  5.025944676850E+00  5.086256012972E+00
  5.147291085128E+00  5.209058578150E+00  5.271567281087E+00  5.334826088460E+00
  5.398844001522E+00  5.463630129540E+00  5.529193691095E+00  5.595544015388E+00
  5.662690543572E+00  5.730642830095E+00  5.799410544056E+00  5.869003470585E+00
  5.939431512232E+00  6.010704690379E+00  6.082833146664E+00  6.155827144423E+00
  6.229697070157E+00  6.304453434998E+00  6.380106876218E+00  6.456668158733E+00
  6.534148176638E+00  6.612557954757E+00  6.691908650215E+00  6.772211554017E+00
  6.853478092665E+00  6.935719829777E+00  7.018948467735E+00  7.103175849347E+00
  7.188413959540E+00  7.274674927054E+00  7.361971026179E+00  7.450314678493E+00
  7.539718454635E+00  7.630195076090E+00  7.721757417004E+00  7.814418506008E+00
  7.908191528080E+00  8.003089826417E+00  8.099126904334E+00  8.196316427186E+00
  8.294672224312E+00  8.394208291004E+00  8.494938790496E+00  8.596878055982E+00
  8.700040592653E+00  8.804441079765E+00  8.910094372722E+00  9.017015505195E+00
  9.125219691257E+00  9.234722327553E+00  9.345538995483E+00  9.457685463429E+00
  9.571177688990E+00  9.686031821258E+00  9.802264203113E+00  9.919891373550E+00
  1.003893007003E+01  1.015939723087E+01  1.028130999764E+01  1.040468571762E+01
  1.052954194623E+01  1.065589644958E+01  1.078376720698E+01  1.091317241346E+01
  1.104413048242E+01  1.117666004821E+01  1.131077996879E+01  1.144650932842E+01
  1.158386744036E+01  1.172287384964E+01  1.186354833584E+01  1.200591091587E+01
  1.214998184686E+01  1.229578162902E+01  1.244333100857E+01  1.259265098067E+01
  1.274376279244E+01  1.289668794595E+01  1.305144820130E+01  1.320806557971E+01
  1.336656236667E+01  1.352696111507E+01  1.368928464845E+01  1.385355606423E+01
  1.401979873700E+01  1.418803632185E+01  1.435829275771E+01  1.453059227080E+01
  1.470495937805E+01  1.488141889059E+01  1.505999591728E+01  1.524071586828E+01
  1.542360445870E+01  1.560868771221E+01  1.579599196475E+01  1.598554386833E+01
  1.617737039475E+01  1.637149883949E+01  1.656795682556E+01  1.676677230747E+01
  1.696797357516E+01  1.717158925806E+01  1.737764832916E+01  1.758618010911E+01
  1.779721427042E+01  1.801078084166E+01  1.822691021176E+01  1.844563313430E+01
  1.866698073191E+01  1.889098450070E+01  1.911767631470E+01  1.934708843048E+01
  1.957925349165E+01  1.981420453355E+01  2.005197498795E+01  2.029259868780E+01
  2.053610987206E+01  2.078254319052E+01  2.103193370881E+01  2.128431691331E+01
  2.153972871627E+01  2.179820546087E+01  2.205978392640E+01  2.232450133352E+01
  2.259239534952E+01  2.286350409371E+01  2.313786614284E+01  2.341552053655E+01
  2.369650678299E+01  2.398086486439E+01  2.426863524276E+01  2.455985886567E+01
  2.485457717206E+01  2.515283209812E+01  2.545466608330E+01  2.576012207630E+01
  2.606924354122E+01  2.638207446371E+01  2.669865935728E+01  2.701904326956E+01
  2.734327178880E+01  2.767139105026E+01  2.800344774287E+01  2.833948911578E+01
  2.867956298517E+01  2.902371774099E+01  2.937200235389E+01  2.972446638213E+01
  3.008115997872E+01  3.044213389846E+01  3.080743950524E+01  3.117712877931E+01
  3.155125432466E+01  3.192986937655E+01  3.231302780907E+01  3.270078414278E+01
  3.309319355250E+01  3.349031187513E+01  3.389219561763E+01  3.429890196504E+01
  3.471048878862E+01  3.512701465408E+01  3.554853882993E+01  3.597512129589E+01
  3.640682275144E+01  3.684370462446E+01  3.728582907995E+01  3.773325902891E+01
  3.818605813726E+01  3.864429083490E+01  3.910802232492E+01  3.957731859282E+01
  4.005224641594E+01  4.053287337293E+01  4.101926785340E+01  4.151149906764E+01
  4.200963705646E+01  4.251375270113E+01  4.302391773355E+01  4.354020474635E+01
  4.406268720331E+01
</grid-data>
</grid>
<valence-charge total-charge="15" is-unscreening-charge="yes"
 rescaled-to-z-pseudo="no">
<radfunc>
<data npts="457">
  1.078569462624E-02  1.078963105829E-02  1.080276313641E-02  1.082922417437E-02
  1.087835324664E-02  1.095882511728E-02  1.109027489037E-02  1.128053556338E-02
  1.154510050226E-02  1.192127370591E-02  1.243252797406E-02  1.309298431197E-02
  1.403664658726E-02  1.519194269534E-02  1.651896939087E-02  1.826138441766E-02
  2.055102088644E-02  2.300072388480E-02  2.607869210079E-02  2.994645465144E-02
  3.480651407532E-02  3.957737645581E-02  4.530273414619E-02  5.217172678570E-02
  6.040996064417E-02  7.028616680558E-02  8.211994796849E-02  9.250566926845E-02
  1.043899820920E-01  1.179832639195E-01  1.335238525146E-01  1.512813759158E-01
  1.715603847255E-01  1.947042897331E-01  2.210996000411E-01  2.511804464077E-01
  2.854333609179E-01  3.244022667366E-01  3.532982825127E-01  3.847546249993E-01
  4.189815378076E-01  4.562039767868E-01  4.966622437906E-01  5.406125803031E-01
  5.883277056974E-01  6.400972825013E-01  6.962282884029E-01  7.570452718546E-01
  8.228904650260E-01  8.941237245289E-01  9.711222668064E-01  1.054280161385E+00
  1.144007541361E+00  1.240729486630E+00  1.344884531469E+00  1.456922744400E+00
  1.577303324725E+00  1.706491657086E+00  1.844955762925E+00  1.993162086089E+00
  2.151570549284E+00  2.320628818957E+00  2.500765718837E+00  2.692383737121E+00
  2.895850579700E+00  3.111489732228E+00  3.339570007845E+00  3.458341818979E+00
  3.580294075416E+00  3.705439729083E+00  3.833785985778E+00  3.965333864075E+00
  4.100077741203E+00  4.238004886914E+00  4.379094986491E+00  4.523319654259E+00
  4.670641939152E+00  4.821015824102E+00  4.974385721242E+00  5.130685965150E+00
  5.289840306595E+00  5.451761409515E+00  5.616350354212E+00  5.783496150002E+00
  5.953075260871E+00  6.124951147918E+00  6.298973832674E+00  6.474979485659E+00
  6.652790044802E+00  6.832212868622E+00  7.013040429306E+00  7.195050051096E+00
  7.378003699563E+00  7.561647827590E+00  7.745713284019E+00  7.929915291070E+00
  8.113953496728E+00  8.297512108318E+00  8.480260113531E+00  8.661851595045E+00
  8.841926144796E+00  9.020109383737E+00  9.196013592645E+00  9.369238459187E+00
  9.539371945974E+00  9.705991283830E+00  9.868664093796E+00  1.002694964069E+01
  1.018040022012E+01  1.032856267997E+01  1.047098007611E+01  1.060719346112E+01
  1.073674380324E+01  1.085917403163E+01  1.097403120216E+01  1.108086877668E+01
  1.117924900671E+01  1.126874541098E+01  1.134894533426E+01  1.141945257302E+01
  1.147989005180E+01  1.152990253215E+01  1.156915933400E+01  1.159735704809E+01
  1.161422221565E+01  1.161951395084E+01  1.161302647942E+01  1.159459156624E+01
  1.156408080339E+01  1.152140772991E+01  1.146652975395E+01  1.139944984816E+01
  1.132021798968E+01  1.122893231692E+01  1.112573997676E+01  1.101083763755E+01
  1.088447164562E+01  1.074693780597E+01  1.059858077088E+01  1.043979302419E+01
  1.027101345313E+01  1.009272550436E+01  9.905454925754E+00  9.709767101023E+00
  9.506263989693E+00  9.295580690867E+00  9.078381654892E+00  8.855356572900E+00
  8.627215979783E+00  8.394686611523E+00  8.158506562732E+00  7.919420294702E+00
  7.678173548041E+00  7.435508217031E+00  7.192157245013E+00  6.948839601348E+00
  6.706255400741E+00  6.465081224832E+00  6.225965704053E+00  5.989525414673E+00
  5.756341141824E+00  5.526954554185E+00  5.301865329869E+00  5.081528766174E+00
  4.866353898231E+00  4.656702143435E+00  4.452886480055E+00  4.255171159743E+00
  4.063771945037E+00  3.878856854552E+00  3.700547390595E+00  3.528920216588E+00
  3.364009245123E+00  3.205808091821E+00  3.054272845567E+00  2.909325102214E+00
  2.770855206510E+00  2.638725645898E+00  2.512774539813E+00  2.392819169263E+00
  2.278659493610E+00  2.170081604551E+00  2.066861071146E+00  1.968766134296E+00
  1.875560714137E+00  1.787007199243E+00  1.702868992244E+00  1.622912792272E+00
  1.546910600464E+00  1.474641440434E+00  1.405892791123E+00  1.340461734603E+00
  1.278155826186E+00  1.218793698537E+00  1.162205415254E+00  1.108232592616E+00
  1.056728310739E+00  1.007556837309E+00  9.605931882509E-01  9.157225502067E-01
  8.728395894740E-01  8.318476712855E-01  7.926579523862E-01  7.551882400199E-01
  7.193618843087E-01  6.851072727584E-01  6.523572693592E-01  6.210486659913E-01
  5.911216429715E-01  5.625192529335E-01  5.351869413361E-01  5.090721156669E-01
  4.841237738739E-01  4.602922007693E-01  4.375288522250E-01  4.157867678293E-01
  3.950212414431E-01  3.751897920161E-01  3.562518967196E-01  3.381689940621E-01
  3.209043782398E-01  3.044230879128E-01  2.886918121106E-01  2.736787961583E-01
  2.593537528746E-01  2.456877782898E-01  2.326532719774E-01  2.202238619371E-01
  2.083743339439E-01  1.970805652536E-01  1.863194625305E-01  1.760689038468E-01
  1.663076845863E-01  1.570154670765E-01  1.481727337624E-01  1.397607437325E-01
  1.317614924023E-01  1.241576741626E-01  1.169326477984E-01  1.100704044898E-01
  1.035555382093E-01  9.737321833528E-02  9.150916430889E-02  8.594962216876E-02
  8.068134280517E-02  7.569156178461E-02  7.096798060384E-02  6.649874924161E-02
  6.227244988498E-02  5.827808171734E-02  5.450504665668E-02  5.094313595945E-02
  4.758251758859E-02  4.441372427163E-02  4.142764217388E-02  3.861550012084E-02
  3.596885931014E-02  3.347960345997E-02  3.113992934651E-02  2.894233768862E-02
  2.687962434255E-02  2.494487177445E-02  2.313144078231E-02  2.143296244272E-02
  1.984333026129E-02  1.835669250860E-02  1.696744472607E-02  1.567022238863E-02
  1.445989371329E-02  1.333155260412E-02  1.228051172629E-02  1.130229570271E-02
  1.039263442831E-02  9.547456497876E-03  8.762882744350E-03  8.035219884987E-03
  7.360954273738E-03  6.736745758471E-03  6.159421642222E-03  5.625970748014E-03
  5.133537587079E-03  4.679416630606E-03  4.261046685336E-03  3.876005373532E-03
  3.522003717989E-03  3.196880832888E-03  2.898598721407E-03  2.625237181089E-03
  2.374988818033E-03  2.146154171049E-03  1.937136946912E-03  1.746439367934E-03
  1.572657633017E-03  1.414477493394E-03  1.270669944189E-03  1.140087032923E-03
  1.021657786007E-03  9.143842541946E-04  8.173376778468E-04  7.296547727895E-04
  6.505341373575E-04  5.792327811070E-04  5.150627754946E-04  4.573880266439E-04
  4.056211701246E-04  3.592205874658E-04  3.176875439049E-04  2.805634466555E-04
  2.474272227423E-04  2.178928152268E-04  1.916067964077E-04  1.682460963542E-04
  1.475158449028E-04  1.291473250245E-04  1.128960352641E-04  9.853985874556E-05
  8.587733605343E-05  7.472603912512E-05  6.492104312906E-05  5.631349316389E-05
  4.876926248927E-05  4.216769889426E-05  3.640045572351E-05  3.137040401473E-05
  2.699062215433E-05  2.318345942979E-05  1.987966984819E-05  1.701761259911E-05
  1.454251556586E-05  1.240579833129E-05  1.056445118136E-05  8.980466680776E-06
  7.620320478685E-06  6.454498096781E-06  5.457064557068E-06  4.605273819126E-06
  3.879215116687E-06  3.261493408653E-06  2.736941289360E-06  2.292359835487E-06
  1.916286001311E-06  1.598784308979E-06  1.331260714976E-06  1.106296667056E-06
  9.175014968206E-07  7.593814209593E-07  6.272235484334E-07  5.169934108484E-07
  4.252446486270E-07  3.490395958631E-07  2.858796117076E-07  2.336441055605E-07
  1.905372971184E-07  1.550418403834E-07  1.258785230822E-07  1.019713296323E-07
  8.241722693344E-08  6.646009799286E-08  5.346830890851E-08  4.291545022340E-08
  3.436384437467E-08  2.745045712567E-08  2.187489275257E-08  1.738919062037E-08
  1.378917489498E-08  1.090713976385E-08  8.605679941418E-09  6.772500672724E-09
  5.316063168444E-09  4.161940644636E-09  3.249777127936E-09  2.530756136204E-09
  1.965499457216E-09  1.522327712107E-09  1.175824380508E-09  9.056536419571E-10
  6.955899011356E-10  5.327233480777E-10  4.068114815380E-10  3.097513054145E-10
  2.351509945368E-10  1.779833069959E-10  1.343059755263E-10  1.010368113707E-10
  7.577336346870E-11  5.664874910359E-11  4.221675793505E-11  3.136057207787E-11
  2.322047750727E-11  1.713679857573E-11  1.260499543763E-11  9.240447436027E-12
  6.750924334998E-12  4.915139012286E-12  3.566094582096E-12  2.578198348928E-12
  1.857324995160E-12  1.333180784887E-12  9.534566873672E-13  6.793673162898E-13
  4.822595304650E-13  3.410436474967E-13  2.402549398043E-13  1.685962432632E-13
  1.178464231356E-13  8.204598757422E-14  5.689183557931E-14  3.928919884724E-14
  2.702126871154E-14  1.850657624788E-14  1.262154109911E-14  8.571218399708E-15
  5.795544517835E-15  3.901618527188E-15  2.614997782144E-15  1.744819933010E-15
  1.158935315344E-15  7.662549846086E-16  5.042767104556E-16  3.303099454710E-16
  2.153311663437E-16  1.397010604076E-16  9.019341730803E-17  5.794377258375E-17
  3.703988478855E-17  2.355793696338E-17  1.490675695013E-17  9.383839473087E-18
  5.876277883399E-18  3.660336197646E-18  2.267820768930E-18  1.397453731298E-18
  8.564038396843E-19  5.219193052893E-19  3.162877965507E-19  1.905838629468E-19
  1.141784726858E-19  6.800579868519E-20  4.026611131720E-20  2.369915461252E-20
  1.386408504383E-20  0.000000000000E+00  0.000000000000E+00  0.000000000000E+00
  0.000000000000E+00  0.000000000000E+00  0.000000000000E+00  0.000000000000E+00
  0.000000000000E+00  0.000000000000E+00  0.000000000000E+00  0.000000000000E+00
  0.000000000000E+00  0.000000000000E+00  0.000000000000E+00  0.000000000000E+00
  0.000000000000E+00
</data>
</radfunc>
</valence-charge>
<pseudocore-charge matching-radius="1.01631662128"
 number-of-continuous-derivatives="4">
<annotation model-charge-form="Teter function with specified parameters" />
<radfunc>
<data npts="290">
  6.413271597376E+01  6.412995018045E+01  6.412168197442E+01  6.410788669796E+01
  6.408764204036E+01  6.406180671329E+01  6.402887354983E+01  6.399115343134E+01
  6.394872994945E+01  6.389924238788E+01  6.384344193605E+01  6.378276719244E+01
  6.370940559093E+01  6.363274867973E+01  6.355613125266E+01  6.346783016645E+01
  6.336608277692E+01  6.326957145952E+01  6.316099786130E+01  6.303887790547E+01
  6.290155124516E+01  6.277950105717E+01  6.264548612792E+01  6.249836171115E+01
  6.233687945029E+01  6.215967925686E+01  6.196528082899E+01  6.180723267324E+01
  6.163787865347E+01  6.145644347456E+01  6.126210382030E+01  6.105398618760E+01
  6.083116475970E+01  6.059265934854E+01  6.033743344207E+01  6.006439239851E+01
  5.977238183689E+01  5.946018628119E+01  5.924021368735E+01  5.901030941627E+01
  5.877006699045E+01  5.851906750580E+01  5.825687970063E+01  5.798306008555E+01
  5.769715314179E+01  5.739869159574E+01  5.708719677820E+01  5.676217907748E+01
  5.642313849629E+01  5.606956532263E+01  5.570094092611E+01  5.531673869124E+01
  5.491642510046E+01  5.449946097982E+01  5.406530292123E+01  5.361340489561E+01
  5.314322007176E+01  5.265420285639E+01  5.214581117079E+01  5.161750898025E+01
  5.106876909187E+01  5.049907623677E+01  4.990793045196E+01  4.929485077668E+01
  4.865937927695E+01  4.800108541079E+01  4.731957074475E+01  4.696999112279E+01
  4.661447403028E+01  4.625298101404E+01  4.588547664527E+01  4.551192870965E+01
  4.513230840320E+01  4.474659053372E+01  4.435475372775E+01  4.395678064299E+01
  4.355265818597E+01  4.314237773492E+01  4.272593536746E+01  4.230333209310E+01
  4.187457409015E+01  4.143967294675E+01  4.099864590580E+01  4.055151611322E+01
  4.009831286938E+01  3.963907188298E+01  3.917383552702E+01  3.870265309631E+01
  3.822558106583E+01  3.774268334928E+01  3.725403155722E+01  3.675970525382E+01
  3.625979221160E+01  3.575438866305E+01  3.524359954834E+01  3.472753875791E+01
  3.420632936905E+01  3.368010387512E+01  3.314900440622E+01  3.261318294010E+01
  3.207280150177E+01  3.152803235051E+01  3.097905815272E+01  3.042607213891E+01
  2.986927824343E+01  2.930889122496E+01  2.874513676615E+01  2.817825155057E+01
  2.760848331502E+01  2.703609087530E+01  2.646134412352E+01  2.588452399486E+01
  2.530592240182E+01  2.472584213389E+01  2.414459672058E+01  2.356251025581E+01
  2.297991718157E+01  2.239716202890E+01  2.181459911428E+01  2.123259218943E+01
  2.065151404295E+01  2.007174605181E+01  1.949367768143E+01  1.891770593274E+01
  1.834423473494E+01  1.777367428317E+01  1.720644031989E+01  1.664295335971E+01
  1.608363785713E+01  1.552892131733E+01  1.497923335023E+01  1.443500466866E+01
  1.389666603147E+01  1.336464713337E+01  1.283937544324E+01  1.232127499345E+01
  1.181076512304E+01  1.130825917828E+01  1.081416317466E+01  1.032887442470E+01
  9.852780137004E+00  9.386255992073E+00  8.929664701431E+00  8.483354556893E+00
  8.047657977617E+00  7.622890063067E+00  7.209347160628E+00  6.807305457136E+00
  6.417019604109E+00  6.038721386921E+00  5.672618448580E+00  5.318893079115E+00
  4.977701081833E+00  4.649170727920E+00  4.333401810911E+00  4.030464812563E+00
  3.740400191505E+00  3.463217805767E+00  3.198896479887E+00  2.947383726721E+00
  2.708595633375E+00  2.482416919784E+00  2.268701177417E+00  2.067271294373E+00
  1.877920071723E+00  1.700411034415E+00  1.534479438321E+00  1.379833473121E+00
  1.236155658728E+00  1.103104430790E+00  9.803159085505E-01  8.674058360629E-01
  7.639716853117E-01  6.695949074509E-01  5.838433159523E-01  5.062735831469E-01
  4.364338294170E-01  3.738662822228E-01  3.181099802663E-01  2.687034964644E-01
  2.251876520632E-01  1.871081932312E-01  1.540184008650E-01  1.254816041672E-01
  1.010735688581E-01  8.038473167891E-02  6.302225416997E-02  4.861187056714E-02
  3.679950705705E-02  2.725265255703E-02  1.966146461155E-02  1.373959788459E-02
  9.224747021722E-03  5.878900285611E-03  3.488305249590E-03  1.863152865877E-03
  8.369912961501E-04  2.658858805184E-04  2.734639649979E-05  1.904718868110E-05
  1.573696983899E-04  3.758002614299E-04  6.232186505324E-04  8.621146118644E-04
  1.066770495486E-03  1.221447946413E-03  1.318615473322E-03  1.357251546375E-03
  1.341254730345E-03  1.277988307904E-03  1.176982002084E-03  1.048807913861E-03
  9.041418308799E-04  7.530148441292E-04  6.042539586888E-04  4.651043418679E-04
  3.410202571238E-04  2.356068148939E-04  1.506906390087E-04  8.649457251201E-05
  4.188975683119E-05  1.469788571932E-05  2.017170545947E-06  5.475005767144E-07
  6.893318681657E-06  1.782667471404E-05  3.049752649321E-05  4.258335082527E-05
  5.237519745805E-05  5.880215387158E-05  6.140048939402E-05  6.023725024855E-05
  5.580057580445E-05  4.887036678392E-05  4.038311037138E-05  3.130369879621E-05
  2.251510132861E-05  1.473398054240E-05  8.457062555587E-06  3.939599033525E-06
  1.203929359496E-06  7.327847925686E-08  2.237729910187E-07  1.246410757922E-06
  2.710465162440E-06  4.220522820534E-06  5.460914216091E-06  6.223477380764E-06
  6.417103854349E-06  6.060028261699E-06  5.258019010958E-06  4.173236581935E-06
  2.989360327705E-06  1.878567466105E-06  9.751234783185E-07  3.588719551891E-07
  5.004737257712E-08  0.000000000000E+00  0.000000000000E+00  0.000000000000E+00
  0.000000000000E+00  0.000000000000E+00  0.000000000000E+00  0.000000000000E+00
  0.000000000000E+00  0.000000000000E+00  0.000000000000E+00  0.000000000000E+00
  0.000000000000E+00  0.000000000000E+00  0.000000000000E+00  0.000000000000E+00
  0.000000000000E+00  0.000000000000E+00  0.000000000000E+00  0.000000000000E+00
  0.000000000000E+00  0.000000000000E+00  0.000000000000E+00  0.000000000000E+00
  0.000000000000E+00  0.000000000000E+00  0.000000000000E+00  0.000000000000E+00
  0.000000000000E+00  0.000000000000E+00  0.000000000000E+00  0.000000000000E+00
  0.000000000000E+00  0.000000000000E+00
</data>
</radfunc>
</pseudocore-charge>
<semilocal-potentials set="scalar_relativistic">
<slps n="6" l="s" rc="2.42776385374" eref="-0.542356632216">
<radfunc>
<data npts="290">
  1.041481968088E+01  1.041021198593E+01  1.039644681745E+01  1.037351101241E+01
  1.033992258180E+01  1.029717903803E+01  1.024288738445E+01  1.018097117237E+01
  1.011167278831E+01  1.003128426287E+01  9.941215775008E+00  9.843964226533E+00
  9.727319626548E+00  9.606523369139E+00  9.486885478410E+00  9.350343713377E+00
  9.194761646070E+00  9.048891048353E+00  8.886738341759E+00  8.706774708339E+00
  8.507398868091E+00  8.332808223035E+00  8.143865617352E+00  7.939697125224E+00
  7.719432646676E+00  7.482218274114E+00  7.227230687096E+00  7.023857065120E+00
  6.809743779841E+00  6.584612058214E+00  6.348213670116E+00  6.100336273274E+00
  5.840808963752E+00  5.569507961664E+00  5.286362347557E+00  4.991359750776E+00
  4.684551877956E+00  4.366059758022E+00  4.147333629967E+00  3.923576673143E+00
  3.694881919788E+00  3.461358815791E+00  3.223133563364E+00  2.980349378581E+00
  2.733166656641E+00  2.481763038422E+00  2.226333372653E+00  1.967089569063E+00
  1.704260338941E+00  1.438090820788E+00  1.168842090097E+00  8.967905537265E-01
  6.222272308436E-01  3.454569239450E-01  6.679728500275E-02 -2.134222166948E-01
 -4.948614169981E-01 -7.771706602805E-01 -1.059992073170E+00 -1.342960896996E+00
 -1.625706866445E+00 -1.907855621319E+00 -2.189030137829E+00 -2.468852165796E+00
 -2.746943658184E+00 -3.022928179852E+00 -3.296432283028E+00 -3.432138620673E+00
 -3.567086837983E+00 -3.701231677721E+00 -3.834528308513E+00 -3.966932361077E+00
 -4.098399963275E+00 -4.228887773963E+00 -4.358353015589E+00 -4.486753505522E+00
 -4.614047686107E+00 -4.740194653404E+00 -4.865154184651E+00 -4.988886764421E+00
 -5.111353609513E+00 -5.232516692590E+00 -5.352338764594E+00 -5.470783375987E+00
 -5.587814896846E+00 -5.703398535898E+00 -5.817500358519E+00 -5.930087303803E+00
 -6.041127200752E+00 -6.150588783675E+00 -6.258441706898E+00 -6.364656558861E+00
 -6.469204875708E+00 -6.572059154474E+00 -6.673192865979E+00 -6.772580467526E+00
 -6.870197415522E+00 -6.966020178142E+00 -7.060026248124E+00 -7.152194155829E+00
 -7.242503482664E+00 -7.330934874968E+00 -7.417470058460E+00 -7.502091853358E+00
 -7.584784190218E+00 -7.665532126602E+00 -7.744321864611E+00 -7.821140769336E+00
 -7.895977388262E+00 -7.968821471631E+00 -8.039663993751E+00 -8.108497175228E+00
 -8.175314506051E+00 -8.240110769456E+00 -8.302882066431E+00 -8.363625840737E+00
 -8.422340904235E+00 -8.479027462308E+00 -8.533687139104E+00 -8.586323002303E+00
 -8.636939587045E+00 -8.685542918626E+00 -8.732140533523E+00 -8.776741498243E+00
 -8.819356425476E+00 -8.859997486941E+00 -8.898678422320E+00 -8.935414543573E+00
 -8.970222733940E+00 -9.003121440857E+00 -9.034130662000E+00 -9.063271923635E+00
 -9.090568250438E+00 -9.116044125919E+00 -9.139725442600E+00 -9.161639441079E+00
 -9.181814637157E+00 -9.200280736193E+00 -9.217068533942E+00 -9.232209803150E+00
 -9.245737165269E+00 -9.257683946739E+00 -9.268084019409E+00 -9.276971624757E+00
 -9.284381181754E+00 -9.290347078349E+00 -9.294903446761E+00 -9.298083922931E+00
 -9.299921390747E+00 -9.300447711860E+00 -9.299693442193E+00 -9.297687536486E+00
 -9.294457042549E+00 -9.290026787155E+00 -9.284419055853E+00 -9.277653269293E+00