<?xml version="1.0" encoding="UTF-8" ?>
<psml version="1.1" energy_unit="hartree" length_unit="bohr"
 uuid="c0116570-23d2-11e8-718f-3e10fefd5876"
 xmlns="http://esl.cecam.org/PSML/ns/1.1">
<provenance creator="ONCVPSP-3.3.0+psml-3.3.0-73 (scalar-relativistic)"
 date="2018-03-09">
<annotation action="semilocal-pseudopotential-generation"
 action-cont="projectors-generation" />
<input-file name="oncvpsp-input">
<![CDATA[# atsym z nc nv iexc psfile
Br 35 6 2 -001012 upf
# n l f
1 0 2.0
2 0 2.0
2 1 6.0
3 0 2.0
3 1 6.0
3 2 10.0
4 0 2.0
4 1 5.0
# lmax
2
# l rc ep ncon nbas qcut
0 1.8 0.0 4 9 5.9
1 1.5 0.0 4 8 7.4
2 1.9 0.1 4 9 7.4
# lloc lpopt rc5 dvloc0
4 5 1.5 0.0
# l nproj debl
0 2 3.2
1 2 4.0
2 2 2.5
# icmod fcfact rcfact
3 8.0 1.21
# epsh1 epsh2 depsh
-12.0 12.0 0.02
# rlmax drl
6.0 0.01
 0
]]>
</input-file>
</provenance>
<pseudo-atom-spec atomic-label="Br" atomic-number="35" z-pseudo="7"
 flavor="Hamann&apos;s oncvpsp" relativity="scalar" spin-dft="no"
 core-corrections="yes">
<annotation pseudo-energy="-13.5562292576" />
<exchange-correlation>
<annotation oncvpsp-xc-code="-1012" oncvpsp-xc-type="libxc-interface" />
<libxc-info number-of-functionals="2">
<functional name="Slater exchange (LDA)" type="exchange" id="1" />
<functional name="Perdew &amp; Wang (LDA)" type="correlation" id="12" />
</libxc-info>
</exchange-correlation>
<valence-configuration total-valence-charge="7">
<shell n="4" l="s" occupation="2" />
<shell n="4" l="p" occupation="5" />
</valence-configuration>
</pseudo-atom-spec>
<grid npts="457">
<annotation type="sampled from oncvpsp log grid"
 recipe="r(i:1..N) = r1*exp(a*(i-1)) + r=0; resampled"
 recipe-cont="r1: scale; a: step" scale="0.142857142857E-04"
 step="0.119285708653E-01" delta="0.500000000000E-02" rmax="44.2674114500" />
<grid-data>
  0.000000000000E+00  5.054917964046E-03  1.009680193746E-02  1.514681294670E-02
  2.016756950152E-02  2.529783174994E-02  3.061762502401E-02  3.575346707549E-02
  4.076653503389E-02  4.593131983604E-02  5.113679882137E-02  5.625713842976E-02
  6.189017883894E-02  6.727989812235E-02  7.313898224683E-02  7.856551971204E-02
  8.439467843280E-02  8.958135458679E-02  9.508679028850E-02  1.009305756658E-01
  1.071335048047E-01  1.123692191118E-01  1.178608076606E-01  1.236207752640E-01
  1.296622378566E-01  1.359989523613E-01  1.426453480144E-01  1.478424498244E-01
  1.532289014281E-01  1.588116015445E-01  1.645977002384E-01  1.705946080783E-01
  1.768100056273E-01  1.832518532800E-01  1.899284014579E-01  1.968482011761E-01
  2.040201149951E-01  2.114533283713E-01  2.165586575315E-01  2.217872497590E-01
  2.271420811171E-01  2.326261995236E-01  2.382427264849E-01  2.439948588732E-01
  2.498858707458E-01  2.559191152091E-01  2.620980263267E-01  2.684261210743E-01
  2.749070013416E-01  2.815443559820E-01  2.883419629128E-01  2.953036912653E-01
  3.024335035873E-01  3.097354580979E-01  3.172137109982E-01  3.248725188365E-01
  3.327162409313E-01  3.407493418524E-01  3.489763939620E-01  3.574020800179E-01
  3.660311958378E-01  3.748686530301E-01  3.839194817889E-01  3.931888337572E-01
  4.026819849594E-01  4.124043388043E-01  4.223614291604E-01  4.274297663103E-01
  4.325589235060E-01  4.377496305881E-01  4.430026261552E-01  4.483186576690E-01
  4.536984815610E-01  4.591428633398E-01  4.646525776999E-01  4.702284086323E-01
  4.758711495358E-01  4.815816033303E-01  4.873605825702E-01  4.932089095611E-01
  4.991274164758E-01  5.051169454735E-01  5.111783488192E-01  5.173124890050E-01
  5.235202388731E-01  5.298024817396E-01  5.361601115204E-01  5.425940328587E-01
  5.491051612530E-01  5.556944231880E-01  5.623627562663E-01  5.691111093415E-01
  5.759404426536E-01  5.828517279654E-01  5.898459487010E-01  5.969241000854E-01
  6.040871892864E-01  6.113362355579E-01  6.186722703846E-01  6.260963376292E-01
  6.336094936807E-01  6.412128076049E-01  6.489073612962E-01  6.566942496317E-01
  6.645745806273E-01  6.725494755948E-01  6.806200693020E-01  6.887875101336E-01
  6.970529602552E-01  7.054175957783E-01  7.138826069276E-01  7.224491982107E-01
  7.311185885893E-01  7.398920116523E-01  7.487707157922E-01  7.577559643817E-01
  7.668490359542E-01  7.760512243857E-01  7.853638390783E-01  7.947882051473E-01
  8.043256636090E-01  8.139775715723E-01  8.237453024312E-01  8.336302460604E-01
  8.436338090131E-01  8.537574147213E-01  8.640025036979E-01  8.743705337423E-01
  8.848629801472E-01  8.954813359090E-01  9.062271119399E-01  9.171018372832E-01
  9.281070593305E-01  9.392443440425E-01  9.505152761710E-01  9.619214594851E-01
  9.734645169989E-01  9.851460912029E-01  9.969678442973E-01  1.008931458429E+00
  1.021038635930E+00  1.033291099561E+00  1.045690592756E+00  1.058238879869E+00
  1.070937746427E+00  1.083788999385E+00  1.096794467377E+00  1.109956000986E+00
  1.123275472998E+00  1.136754778673E+00  1.150395836018E+00  1.164200586050E+00
  1.178170993082E+00  1.192309044999E+00  1.206616753539E+00  1.221096154582E+00
  1.235749308437E+00  1.250578300138E+00  1.265585239740E+00  1.280772262617E+00
  1.296141529768E+00  1.311695228125E+00  1.327435570863E+00  1.343364797713E+00
  1.359485175286E+00  1.375798997389E+00  1.392308585358E+00  1.409016288382E+00
  1.425924483843E+00  1.443035577649E+00  1.460352004580E+00  1.477876228635E+00
  1.495610743379E+00  1.513558072300E+00  1.531720769167E+00  1.550101418397E+00
  1.568702635418E+00  1.587527067043E+00  1.606577391848E+00  1.625856320550E+00
  1.645366596396E+00  1.665110995553E+00  1.685092327500E+00  1.705313435430E+00
  1.725777196655E+00  1.746486523015E+00  1.767444361291E+00  1.788653693626E+00
  1.810117537950E+00  1.831838948405E+00  1.853821015786E+00  1.876066867976E+00
  1.898579670391E+00  1.921362626436E+00  1.944418977953E+00  1.967752005689E+00
  1.991365029757E+00  2.015261410114E+00  2.039444547035E+00  2.063917881600E+00
  2.088684896179E+00  2.113749114933E+00  2.139114104312E+00  2.164783473564E+00
  2.190760875247E+00  2.217050005750E+00  2.243654605819E+00  2.270578461089E+00
  2.297825402622E+00  2.325399307453E+00  2.353304099143E+00  2.381543748332E+00
  2.410122273312E+00  2.439043740592E+00  2.468312265479E+00  2.497932012665E+00
  2.527907196817E+00  2.558242083179E+00  2.588940988177E+00  2.620008280035E+00
  2.651448379395E+00  2.683265759948E+00  2.715464949067E+00  2.748050528456E+00
  2.781027134798E+00  2.814399460415E+00  2.848172253940E+00  2.882350320988E+00
  2.916938524839E+00  2.951941787138E+00  2.987365088583E+00  3.023213469646E+00
  3.059492031282E+00  3.096205935657E+00  3.133360406885E+00  3.170960731768E+00
  3.209012260549E+00  3.247520407676E+00  3.286490652568E+00  3.325928540399E+00
  3.365839682883E+00  3.406229759078E+00  3.447104516187E+00  3.488469770381E+00
  3.530331407626E+00  3.572695384517E+00  3.615567729131E+00  3.658954541881E+00
  3.702861996384E+00  3.747296340340E+00  3.792263896424E+00  3.837771063181E+00
  3.883824315940E+00  3.930430207731E+00  3.977595370224E+00  4.025326514666E+00
  4.073630432842E+00  4.122513998036E+00  4.171984166013E+00  4.222047976005E+00
  4.272712551717E+00  4.323985102338E+00  4.375872923566E+00  4.428383398648E+00
  4.481523999432E+00  4.535302287425E+00  4.589725914875E+00  4.644802625853E+00
  4.700540257363E+00  4.756946740452E+00  4.814030101337E+00  4.871798462553E+00
  4.930260044104E+00  4.989423164633E+00  5.049296242609E+00  5.109887797520E+00
  5.171206451090E+00  5.233260928503E+00  5.296060059645E+00  5.359612780361E+00
  5.423928133725E+00  5.489015271330E+00  5.554883454586E+00  5.621542056041E+00
  5.689000560713E+00  5.757268567442E+00  5.826355790251E+00  5.896272059734E+00
  5.967027324451E+00  6.038631652345E+00  6.111095232173E+00  6.184428374959E+00
  6.258641515458E+00  6.333745213644E+00  6.409750156208E+00  6.486667158082E+00
  6.564507163979E+00  6.643281249947E+00  6.723000624946E+00  6.803676632445E+00
  6.885320752035E+00  6.967944601059E+00  7.051559936272E+00  7.136178655507E+00
  7.221812799373E+00  7.308474552966E+00  7.396176247601E+00  7.484930362573E+00
  7.574749526923E+00  7.665646521247E+00  7.757634279501E+00  7.850725890855E+00
  7.944934601546E+00  8.040273816764E+00  8.136757102565E+00  8.234398187796E+00
  8.333210966050E+00  8.433209497642E+00  8.534408011614E+00  8.636820907753E+00
  8.740462758647E+00  8.845348311750E+00  8.951492491491E+00  9.058910401389E+00
  9.167617326206E+00  9.277628734120E+00  9.388960278930E+00  9.501627802277E+00
  9.615647335904E+00  9.731035103935E+00  9.847807525182E+00  9.965981215485E+00
  1.008557299007E+01  1.020659986595E+01  1.032907906434E+01  1.045302801311E+01
  1.057846434927E+01  1.070540592146E+01  1.083387079252E+01  1.096387724203E+01
  1.109544376894E+01  1.122858909416E+01  1.136333216329E+01  1.149969214925E+01
  1.163768845504E+01  1.177734071650E+01  1.191866880510E+01  1.206169283076E+01
  1.220643314473E+01  1.235291034247E+01  1.250114526658E+01  1.265115900978E+01
  1.280297291789E+01  1.295660859291E+01  1.311208789602E+01  1.326943295078E+01
  1.342866614619E+01  1.358981013994E+01  1.375288786162E+01  1.391792251596E+01
  1.408493758615E+01  1.425395683718E+01  1.442500431923E+01  1.459810437106E+01
  1.477328162351E+01  1.495056100300E+01  1.512996773503E+01  1.531152734785E+01
  1.549526567603E+01  1.568120886414E+01  1.586938337051E+01  1.605981597095E+01
  1.625253376261E+01  1.644756416776E+01  1.664493493777E+01  1.684467415702E+01
  1.704681024691E+01  1.725137196987E+01  1.745838843351E+01  1.766788909471E+01
  1.787990376385E+01  1.809446260901E+01  1.831159616032E+01  1.853133531425E+01
  1.875371133802E+01  1.897875587407E+01  1.920650094456E+01  1.943697895590E+01
  1.967022270337E+01  1.990626537581E+01  2.014514056032E+01  2.038688224704E+01
  2.063152483401E+01  2.087910313201E+01  2.112965236960E+01  2.138320819803E+01
  2.163980669641E+01  2.189948437677E+01  2.216227818929E+01  2.242822552756E+01
  2.269736423389E+01  2.296973260470E+01  2.324536939595E+01  2.352431382871E+01
  2.380660559465E+01  2.409228486179E+01  2.438139228013E+01  2.467396898749E+01
  2.497005661534E+01  2.526969729472E+01  2.557293366226E+01  2.587980886621E+01
  2.619036657260E+01  2.650465097147E+01  2.682270678313E+01  2.714457926453E+01
  2.747031421570E+01  2.779995798629E+01  2.813355748213E+01  2.847116017191E+01
  2.881281409397E+01  2.915856786310E+01  2.950847067746E+01  2.986257232559E+01
  3.022092319350E+01  3.058357427182E+01  3.095057716308E+01  3.132198408904E+01
  3.169784789810E+01  3.207822207288E+01  3.246316073776E+01  3.285271866661E+01
  3.324695129061E+01  3.364591470610E+01  3.404966568257E+01  3.445826167076E+01
  3.487176081081E+01  3.529022194054E+01  3.571370460383E+01  3.614226905907E+01
  3.657597628778E+01  3.701488800323E+01  3.745906665927E+01  3.790857545918E+01
  3.836347836469E+01  3.882384010507E+01  3.928972618633E+01  3.976120290057E+01
  4.023833733537E+01  4.072119738340E+01  4.120985175200E+01  4.170436997302E+01
  4.220482241270E+01  4.271128028165E+01  4.322381564503E+01  4.374250143277E+01
  4.426741144996E+01
</grid-data>
</grid>
<valence-charge total-charge="7" is-unscreening-charge="yes"
 rescaled-to-z-pseudo="no">
<radfunc>
<data npts="457">
  1.013183513611E-02  1.015965217092E-02  1.024286002144E-02  1.038185753368E-02
  1.057548225371E-02  1.083073467178E-02  1.115713230535E-02  1.153237589456E-02
  1.195619884733E-02  1.245298857000E-02  1.301624456249E-02  1.363242324973E-02
  1.438262046049E-02  1.517257180680E-02  1.611291744927E-02  1.706120112486E-02
  1.816453038253E-02  1.922161246979E-02  2.042306852483E-02  2.178993420249E-02
  2.334661961711E-02  2.474756504096E-02  2.630474121036E-02  2.803701752988E-02
  2.996578943145E-02  3.211535178141E-02  3.451333076875E-02  3.649360189897E-02
  3.864607997093E-02  4.098718075847E-02  4.353503993416E-02  4.630970472011E-02
  4.933334667626E-02  5.263049762534E-02  5.622831079772E-02  6.015684933498E-02
  6.444940430591E-02  6.914284434941E-02  7.251450562553E-02  7.609555513017E-02
  7.990007711098E-02  8.394314185585E-02  8.824087150890E-02  9.281050924897E-02
  9.767049180771E-02  1.028405252617E-01  1.083416639817E-01  1.141963925628E-01
  1.204287104849E-01  1.270642191737E-01  1.341302110295E-01  1.416557598825E-01
  1.496718121988E-01  1.582112782127E-01  1.673091219877E-01  1.770024492096E-01
  1.873305912923E-01  1.983351841209E-01  2.100602394665E-01  2.225522067812E-01
  2.358600227157E-01  2.500351452895E-01  2.651315691799E-01  2.812058180895E-01
  2.983169095747E-01  3.165262870955E-01  3.358977133526E-01  3.460397183964E-01
  3.564971182254E-01  3.672784590951E-01  3.783923938102E-01  3.898476718282E-01
  4.016531281851E-01  4.138176711615E-01  4.263502686021E-01  4.392599328000E-01
  4.525557038521E-01  4.662466313873E-01  4.803417545687E-01  4.948500802639E-01
  5.097805592766E-01  5.251420605294E-01  5.409433430855E-01  5.571930258937E-01
  5.738995551415E-01  5.910711691001E-01  6.087158603443E-01  6.268413352324E-01
  6.454549705344E-01  6.645637670987E-01  6.841743004547E-01  7.042926682547E-01
  7.249244344682E-01  7.460745702529E-01  7.677473914407E-01  7.899464925932E-01
  8.126746776020E-01  8.359338868303E-01  8.597251208215E-01  8.840483606285E-01
  9.089024848537E-01  9.342851835278E-01  9.601928690013E-01  9.866205840675E-01
  1.013561907593E+00  1.041008857986E+00  1.068951794905E+00  1.097379319659E+00
  1.126278174853E+00  1.155633143879E+00  1.185426950948E+00  1.215640162454E+00
  1.246251090512E+00  1.277235699637E+00  1.308567517589E+00  1.340217551505E+00
  1.372154210519E+00  1.404343236143E+00  1.436747641743E+00  1.469327662503E+00
  1.502040717324E+00  1.534841384104E+00  1.567681389877E+00  1.600509617255E+00
  1.633272128590E+00  1.665912209202E+00  1.698370430909E+00  1.730584736982E+00
  1.762490549483E+00  1.794020899729E+00  1.825106582431E+00  1.855676333752E+00
  1.885657033274E+00  1.914973929531E+00  1.943550888422E+00  1.971310663490E+00
  1.998175186677E+00  2.024065877825E+00  2.048903970863E+00  2.072610854318E+00
  2.095108423509E+00  2.116319441603E+00  2.136167906546E+00  2.154579420850E+00
  2.171481561235E+00  2.186804245258E+00  2.200480092325E+00  2.212444776805E+00
  2.222637371419E+00  2.231000679651E+00  2.237481556502E+00  2.242031217644E+00
  2.244605537672E+00  2.245165338907E+00  2.243676672780E+00  2.240111096411E+00
  2.234445947326E+00  2.226664619467E+00  2.216756843518E+00  2.204718974185E+00
  2.190554286310E+00  2.174273280570E+00  2.155893998013E+00  2.135442340786E+00
  2.112952394254E+00  2.088466743207E+00  2.062036772279E+00  2.033722938091E+00
  2.003594998144E+00  1.971732179376E+00  1.938223267733E+00  1.903166599272E+00
  1.866669933511E+00  1.828850190998E+00  1.789832538622E+00  1.749747218672E+00
  1.708725067798E+00  1.666896093389E+00  1.624389412316E+00  1.581332139088E+00
  1.537848666687E+00  1.494059902954E+00  1.450082545689E+00  1.406028405938E+00
  1.362003795204E+00  1.318108992038E+00  1.274437802436E+00  1.231077226609E+00
  1.188107242231E+00  1.145600855691E+00  1.103624861846E+00  1.062240976291E+00
  1.021506072120E+00  9.814720407304E-01  9.421859671829E-01  9.036902137959E-01
  8.660225363265E-01  8.292162123174E-01  7.933001816993E-01  7.582991981441E-01
  7.242339897030E-01  6.911214271768E-01  6.589746990352E-01  6.278034913284E-01
  5.976141714158E-01  5.684099742707E-01  5.401911902136E-01  5.129553529958E-01
  4.866974272340E-01  4.614099942670E-01  4.370834355889E-01  4.137061130856E-01
  3.912645453817E-01  3.697435796779E-01  3.491265585353E-01  3.293954811351E-01
  3.105311586087E-01  2.925133631057E-01  2.753209703347E-01  2.589320953145E-01
  2.433242212882E-01  2.284743215868E-01  2.143589744467E-01  2.009544707619E-01
  1.882369148042E-01  1.761823179844E-01  1.647666857580E-01  1.539660978125E-01
  1.437567816982E-01  1.341151800865E-01  1.250180118621E-01  1.164423272701E-01
  1.083655573528E-01  1.007655579229E-01  9.362064832735E-02  8.690964526148E-02
  8.061189189809E-02  7.470728259611E-02  6.917628345466E-02  6.399994897554E-02
  5.915993509442E-02  5.463850883603E-02  5.041855484313E-02  4.648357902241E-02
  4.281770954252E-02  3.940569541198E-02  3.623290285509E-02  3.328530969572E-02
  3.054949794841E-02  2.801264480746E-02  2.566251221401E-02  2.348743517174E-02
  2.147630897189E-02  1.961857547820E-02  1.790420861322E-02  1.632369917759E-02
  1.486803912491E-02  1.352870540579E-02  1.229764348609E-02  1.116725063587E-02
  1.013035907783E-02  9.180219076131E-03  8.310482039277E-03  7.515183703895E-03
  6.788727459471E-03  6.125867868082E-03  5.521694427165E-03  4.971615617906E-03
  4.471343276649E-03  4.016877321857E-03  3.604490864660E-03  3.230715726795E-03
  2.892328385822E-03  2.586336363877E-03  2.309965072856E-03  2.060645125830E-03
  1.836000121621E-03  1.633834906886E-03  1.452124317624E-03  1.289002399855E-03
  1.142752107253E-03  1.011795471684E-03  8.946842410179E-04  7.900909771190E-04
  6.968006056342E-04  6.137024080607E-04  5.397824455736E-04  4.741164032296E-04
  4.158628424204E-04  3.642568488239E-04  3.186040625855E-04  2.782750770498E-04
  2.427001920440E-04  2.113645074877E-04  1.838033429574E-04  1.595979687677E-04
  1.383716341334E-04  1.197858780469E-04  1.035371086337E-04  8.935343693285E-05
  7.699175128434E-05  6.623501878122E-05  5.688980056429E-05  4.878396808898E-05
  4.176460787768E-05  3.569610267951E-05  3.045837739100E-05  2.594529853883E-05
  2.206321658875E-05  1.872964081641E-05  1.587203695508E-05  1.342673831734E-05
  1.133796157035E-05  9.556918824355E-06  8.041018169237E-06  6.753145261532E-06
  5.661019022596E-06  4.736614955671E-06  3.955650023613E-06  3.297123448899E-06
  2.742908201891E-06  2.277388331316E-06  1.887137661741E-06  1.560635736020E-06
  1.288017215766E-06  1.060851269761E-06  8.719477787956E-07  7.151874657795E-07
  5.853733223987E-07  4.781009483454E-07  3.896456467701E-07  3.168643305246E-07
  2.571104886458E-07  2.081606419883E-07  1.681508816644E-07  1.355222347317E-07
  1.089737391245E-07  8.742223494463E-08  6.996799267762E-08  5.586540145647E-08
  4.449803292588E-08  3.535747930808E-08  2.802543866610E-08  2.215858680137E-08
  1.747583438139E-08  1.374762040879E-08  1.078693962207E-08  8.441842428394E-09
  6.589182046748E-09  5.129415180503E-09  3.982290204964E-09  3.083280973026E-09
  2.380645301818E-09  1.833005363061E-09  1.407362885527E-09  1.077475584862E-09
  8.225328307183E-10  6.260784834936E-10  4.751372976097E-10  3.595084866662E-10
  2.711961480818E-10  2.039514014076E-10  1.529054380173E-10  1.142763267387E-10
  8.513547200858E-11  6.322216697870E-11  4.679680063436E-11  3.452503193193E-11
  2.538669250145E-11  1.860437174020E-11  1.358761613833E-11  9.889474181495E-12
  7.172769486932E-12  5.184013563723E-12  3.733297299503E-12  2.678845035555E-12
  1.915191988500E-12  1.364167360943E-12  9.680421543829E-13  6.843410371327E-13
  4.819286822950E-13  3.380685514229E-13  2.362208677672E-13  1.644003237226E-13
  1.139559937077E-13  7.866846805092E-14  5.408438435405E-14  3.702790695798E-14
  2.524356264663E-14  1.713618759389E-14  1.158237020626E-14  7.794309976913E-15
  5.221940734377E-15  3.482868101246E-15  2.312434352175E-15  1.528288306536E-15
  1.005357606001E-15  6.582499832207E-16  4.289349817003E-16  2.781617428914E-16
  1.795078056395E-16  1.152719494066E-16  7.365331582488E-17  4.682340190160E-17
  2.961480174972E-17  1.863385137977E-17  1.166316696285E-17  7.261423976786E-18
  4.496648538705E-18  2.769405907380E-18  0.000000000000E+00  0.000000000000E+00
  0.000000000000E+00  0.000000000000E+00  0.000000000000E+00  0.000000000000E+00
  0.000000000000E+00  0.000000000000E+00  0.000000000000E+00  0.000000000000E+00
  0.000000000000E+00  0.000000000000E+00  0.000000000000E+00  0.000000000000E+00
  0.000000000000E+00  0.000000000000E+00  0.000000000000E+00  0.000000000000E+00
  0.000000000000E+00  0.000000000000E+00  0.000000000000E+00  0.000000000000E+00
  0.000000000000E+00  0.000000000000E+00  0.000000000000E+00  0.000000000000E+00
  0.000000000000E+00  0.000000000000E+00  0.000000000000E+00  0.000000000000E+00
  0.000000000000E+00  0.000000000000E+00  0.000000000000E+00  0.000000000000E+00
  0.000000000000E+00  0.000000000000E+00  0.000000000000E+00  0.000000000000E+00
  0.000000000000E+00  0.000000000000E+00  0.000000000000E+00  0.000000000000E+00
  0.000000000000E+00  0.000000000000E+00  0.000000000000E+00  0.000000000000E+00
  0.000000000000E+00
</data>
</radfunc>
</valence-charge>
<pseudocore-charge matching-radius="1.13675477867"
 number-of-continuous-derivatives="4">
<annotation model-charge-form="Teter function with specified parameters" />
<radfunc>
<data npts="290">
  1.882678844762E+01  1.882598509529E+01  1.882358351012E+01  1.881957652388E+01
  1.881400477856E+01  1.880667734908E+01  1.879733669142E+01  1.878663814789E+01
  1.877460535197E+01  1.876056861373E+01  1.874474086243E+01  1.872753002405E+01
  1.870671977082E+01  1.868497393483E+01  1.865930621663E+01  1.863365582107E+01
  1.860409899946E+01  1.857606278194E+01  1.854452200600E+01  1.850904535378E+01
  1.846915024108E+01  1.843369241113E+01  1.839475781716E+01  1.835201364884E+01
  1.830509693818E+01  1.825361218790E+01  1.819712889264E+01  1.815120603112E+01
  1.810199681860E+01  1.804927569602E+01  1.799280310212E+01  1.793232483652E+01
  1.786757143320E+01  1.779825755286E+01  1.772408140435E+01  1.764472420731E+01
  1.755984971019E+01  1.746910377998E+01  1.740516147347E+01  1.733832967704E+01
  1.726848987795E+01  1.719551991326E+01  1.711929398633E+01  1.703968270084E+01
  1.695655311432E+01  1.686976881353E+01  1.677919001424E+01  1.668467368779E+01
  1.658607371757E+01  1.648324108825E+01  1.637602411105E+01  1.626426868847E+01
  1.614781862210E+01  1.602651596734E+01  1.590020143904E+01  1.576871487221E+01
  1.563189574213E+01  1.548958374839E+01  1.534161946738E+01  1.518784507791E+01
  1.502810516460E+01  1.486224760372E+01  1.469012453601E+01  1.451159343091E+01
  1.432651824617E+01  1.413477068686E+01  1.393623156667E+01  1.383438077490E+01
  1.373079227452E+01  1.362545439966E+01  1.351835634800E+01  1.340948823581E+01
  1.329884115472E+01  1.318640723011E+01  1.307217968116E+01  1.295615288249E+01
  1.283832242739E+01  1.271868519256E+01  1.259723940434E+01  1.247398470633E+01
  1.234892222840E+01  1.222205465688E+01  1.209338630598E+01  1.196292319027E+01
  1.183067309807E+01  1.169664566567E+01  1.156085245224E+01  1.142330701523E+01
  1.128402498615E+01  1.114302414641E+01  1.100032450327E+01  1.085594836533E+01
  1.070992041768E+01  1.056226779616E+01  1.041302016065E+01  1.026220976698E+01
  1.010987153721E+01  9.956043127925E+00  9.800764996179E+00  9.644080462730E+00
  9.486035772166E+00  9.326680149508E+00  9.166065852851E+00  9.004248221583E+00
  8.841285719720E+00  8.677239973851E+00  8.512175805184E+00  8.346161255160E+00
  8.179267604098E+00  8.011569382299E+00  7.843144373047E+00  7.674073606910E+00
  7.504441346766E+00  7.334335062935E+00  7.163845397837E+00  6.993066119556E+00
  6.822094063725E+00  6.651029063136E+00  6.479973864504E+00  6.309034031822E+00
  6.138317835764E+00  5.967936128632E+00  5.798002204377E+00  5.628631643237E+00
  5.459942140626E+00  5.292053319924E+00  5.125086528898E+00  4.959164619545E+00
  4.794411711239E+00  4.630952937128E+00  4.468914173839E+00  4.308421754641E+00
  4.149602166336E+00  3.992581730259E+00  3.837486267900E+00  3.684440751796E+00
  3.533568942495E+00  3.384993012529E+00  3.238833158496E+00  3.095207202543E+00
  2.954230184654E+00  2.816013947384E+00  2.680666714816E+00  2.548292667705E+00
  2.418991516956E+00  2.292858077754E+00  2.169981846833E+00  2.050446585534E+00
  1.934329911465E+00  1.821702901700E+00  1.712629710610E+00  1.607167205500E+00
  1.505364623330E+00  1.407263251876E+00  1.312896138690E+00  1.222287831272E+00
  1.135454151796E+00  1.052402009704E+00  9.731292553630E-01  8.976245778388E-01
  8.258674496420E-01  7.578281210837E-01  6.934676665712E-01  6.327380848491E-01
  5.755824548033E-01  5.219351480058E-01  4.717220987005E-01  4.248611313849E-01
  3.812623455898E-01  3.408285568213E-01  3.034557920001E-01  2.690338370518E-01
  2.374468336075E-01  2.085739210756E-01  1.822899196385E-01  1.584660490384E-01
  1.369706773503E-01  1.176700933063E-01  1.004292951617E-01  8.511278857485E-02
  7.158538554379E-02  5.971299610063E-02  4.936340423708E-02  4.040701942478E-02
  3.271759511907E-02  2.617290580385E-02  2.065537445377E-02  1.605264276646E-02
  1.225807715079E-02  9.171204248085E-03  6.698070704221E-03  4.751522993625E-03
  3.251404305709E-03  2.124666822593E-03  1.305399120355E-03  7.347698873304E-04
  3.608906408317E-04  1.386016034360E-04  2.918633449796E-05  2.206288684052E-08
  2.417389367298E-05  7.994212582618E-05  1.503727832671E-04  2.227420946943E-04
  2.880260304507E-04  3.403660958043E-04  3.765423758894E-04  3.954643238656E-04
  3.976889864882E-04  3.849752869463E-04  3.598816613271E-04  3.254128110782E-04
  2.847196381367E-04  2.408546295897E-04  1.965831193550E-04  1.542490445248E-04
  1.156921044760E-04  8.221169083611E-05  5.457165010352E-05  3.303892379058E-05
  1.744842709604E-05  7.286205043675E-06  1.782956097569E-06  1.042981895310E-08
  9.739599089910E-07  3.695440709009E-06  7.282330435110E-06  1.097969055077E-05
  1.420376036656E-05  1.655702731262E-05  1.782609592436E-05  1.796479973796E-05
  1.706587123670E-05  1.532503635135E-05  1.300160614998E-05  1.037950000329E-05
  7.732179466594E-06  5.294253565900E-06  3.241608736820E-06  1.680910287235E-06
  6.483143262812E-07  1.163154714746E-07  6.921329356865E-09  2.088552953767E-07
  5.962837177941E-07  1.046650052984E-06  1.455553246018E-06  1.747176315199E-06
  1.879476257858E-06  1.844095415438E-06  1.661651347881E-06  1.373619773103E-06
  1.032376113676E-06  6.910679169296E-07  3.948499362872E-07  1.746584839757E-07
  4.419517873773E-08  2.173019973901E-10  0.000000000000E+00  0.000000000000E+00
  0.000000000000E+00  0.000000000000E+00  0.000000000000E+00  0.000000000000E+00
  0.000000000000E+00  0.000000000000E+00  0.000000000000E+00  0.000000000000E+00
  0.000000000000E+00  0.000000000000E+00  0.000000000000E+00  0.000000000000E+00
  0.000000000000E+00  0.000000000000E+00  0.000000000000E+00  0.000000000000E+00
  0.000000000000E+00  0.000000000000E+00  0.000000000000E+00  0.000000000000E+00
  0.000000000000E+00  0.000000000000E+00  0.000000000000E+00  0.000000000000E+00
  0.000000000000E+00  0.000000000000E+00  0.000000000000E+00  0.000000000000E+00
  0.000000000000E+00  0.000000000000E+00
</data>
</radfunc>
</pseudocore-charge>
<semilocal-potentials set="scalar_relativistic">
<slps n="4" l="s" rc="1.81011753795" eref="-0.746748479888">
<radfunc>
<data npts="290">
  5.716968189197E+01  5.713314953657E+01  5.702416570096E+01  5.684308737447E+01
  5.659286088365E+01  5.626652707617E+01  5.585498195639E+01  5.538962985160E+01
  5.487376834550E+01  5.428183309337E+01  5.362674876846E+01  5.292888289657E+01
  5.210453691763E+01  5.126508960217E+01  5.030196833036E+01  4.936821313411E+01
  4.832621081405E+01  4.736985364262E+01  4.632940559011E+01  4.520168092194E+01
  4.398428606618E+01  4.294482338077E+01  4.184686205251E+01  4.069076084906E+01
  3.947747945047E+01  3.820862679521E+01  3.688649865088E+01  3.586172206547E+01
  3.481018822525E+01  3.373365669338E+01  3.263410726534E+01  3.151373078266E+01
  3.037491621906E+01  2.922023408995E+01  2.805241634402E+01  2.687433300522E+01
  2.568896593905E+01  2.449938021354E+01  2.370551779072E+01  2.291209595136E+01
  2.212004489104E+01  2.133029043696E+01  2.054374981005E+01  1.976132745635E+01
  1.898391098606E+01  1.821236725698E+01  1.744753863651E+01  1.669023947400E+01
  1.594125281166E+01  1.520132735884E+01  1.447117475086E+01  1.375146710950E+01
  1.304283491826E+01  1.234586522186E+01  1.166110015534E+01  1.098903580474E+01
  1.033012139815E+01  9.684758822602E+00  9.053302460161E+00  8.436059334104E+00
  7.833289554530E+00  7.245207051432E+00  6.671980582440E+00  6.113735002024E+00
  5.570552778890E+00  5.042475748536E+00  4.529507088457E+00  4.278679353505E+00
  4.031613504122E+00  3.788300071156E+00  3.548727614575E+00  3.312882808206E+00
  3.080750527195E+00  2.852313938120E+00  2.627554591670E+00  2.406452517833E+00
  2.188986323484E+00  1.975133292320E+00  1.764869487031E+00  1.558169853616E+00
  1.355008327745E+00  1.155357943044E+00  9.591909411770E-01  7.664788835795E-01
  5.771927646894E-01  3.913031264892E-01  2.087801741633E-01  2.959389264254E-02
 -1.462858362132E-01 -3.188891160753E-01 -4.882459185616E-01 -6.543859659520E-01
 -8.173386145857E-01 -9.771327393612E-01 -1.133796619799E+00 -1.287357828171E+00
 -1.437843120242E+00 -1.585278329216E+00 -1.729688263531E+00 -1.871096609171E+00
 -2.009525837239E+00 -2.144997117569E+00 -2.277530239174E+00 -2.407143538409E+00
 -2.533853835739E+00 -2.657676382029E+00 -2.778624815330E+00 -2.896711129116E+00
 -3.011945652972E+00 -3.124337046706E+00 -3.233892308873E+00 -3.340616800653E+00
 -3.444514286002E+00 -3.545586988923E+00 -3.643835668640E+00 -3.739259713362E+00
 -3.831857253186E+00 -3.921625292559E+00 -4.008559862538E+00 -4.092656192877E+00
 -4.173908903750E+00 -4.252312216625E+00 -4.327860183527E+00 -4.400546933575E+00
 -4.470366935301E+00 -4.537315272863E+00 -4.601387933808E+00 -4.662582105580E+00
 -4.720896477454E+00 -4.776331544052E+00 -4.828889906081E+00 -4.878576563341E+00
 -4.925399194544E+00 -4.969368417943E+00 -5.010498026258E+00 -5.048805188967E+00
 -5.084310614625E+00 -5.117038665619E+00 -5.147017417598E+00 -5.174278655817E+00
 -5.198857800828E+00 -5.220793756353E+00 -5.240128672826E+00 -5.256907621105E+00
 -5.271178172079E+00 -5.282989879627E+00 -5.292393666398E+00 -5.299441114401E+00
 -5.304183665282E+00 -5.306671738557E+00 -5.306953779841E+00 -5.305075255315E+00
 -5.301077613219E+00 -5.294997237985E+00 -5.286864427609E+00 -5.276702429902E+00
 -5.264526578185E+00 -5.250343571540E+00 -5.234150948779E+00 -5.215936808422E+00