<?xml version="1.0" encoding="UTF-8" ?>
<psml version="1.1" energy_unit="hartree" length_unit="bohr"
 uuid="5ed87af0-23d2-11e8-4580-fa66ffffc70c"
 xmlns="http://esl.cecam.org/PSML/ns/1.1">
<provenance creator="ONCVPSP-3.3.0+psml-3.3.0-73 (scalar-relativistic)"
 date="2018-03-09">
<annotation action="semilocal-pseudopotential-generation"
 action-cont="projectors-generation" />
<input-file name="oncvpsp-input">
<![CDATA[# atsym z nc nv iexc psfile
Ca 20 3 3 -001012 upf
# n l f
1 0 2.0
2 0 2.0
2 1 6.0
3 0 2.0
3 1 6.0
4 0 2.0
# lmax
2
# l rc ep ncon nbas qcut
0 1.45 0.0 4 8 8.2
1 1.45 0.0 4 8 8.4
2 1.85 0.0 4 8 8.0
# lloc lpopt rc5 dvloc0
4 5 1.3 0.0
# l nproj debl
0 2 2.0
1 2 2.0
2 2 2.0
# icmod fcfact rcfact
3 6.0 1.28
# epsh1 epsh2 depsh
-12.0 12.0 0.02
# rlmax drl
4.0 0.01
 0
]]>
</input-file>
</provenance>
<pseudo-atom-spec atomic-label="Ca" atomic-number="20" z-pseudo="10"
 flavor="Hamann&apos;s oncvpsp" relativity="scalar" spin-dft="no"
 core-corrections="yes">
<annotation pseudo-energy="-36.8566614199" />
<exchange-correlation>
<annotation oncvpsp-xc-code="-1012" oncvpsp-xc-type="libxc-interface" />
<libxc-info number-of-functionals="2">
<functional name="Slater exchange (LDA)" type="exchange" id="1" />
<functional name="Perdew &amp; Wang (LDA)" type="correlation" id="12" />
</libxc-info>
</exchange-correlation>
<valence-configuration total-valence-charge="10">
<shell n="3" l="s" occupation="2" />
<shell n="3" l="p" occupation="6" />
<shell n="4" l="s" occupation="2" />
</valence-configuration>
</pseudo-atom-spec>
<grid npts="457">
<annotation type="sampled from oncvpsp log grid"
 recipe="r(i:1..N) = r1*exp(a*(i-1)) + r=0; resampled"
 recipe-cont="r1: scale; a: step" scale="0.250000000000E-04"
 step="0.119285708653E-01" delta="0.500000000000E-02" rmax="44.2219702658" />
<grid-data>
  0.000000000000E+00  5.049729012381E-03  1.008643741373E-02  1.513126450836E-02
  2.014686717874E-02  2.527186313341E-02  3.058619555721E-02  3.571676558720E-02
  4.072468755361E-02  4.588417062408E-02  5.108430610452E-02  5.619938960492E-02
  6.182664761078E-02  6.721083426378E-02  7.306390394756E-02  7.848487098793E-02
  8.430804598688E-02  8.948939793739E-02  9.498918222399E-02  1.008269688650E-01
  1.070235306009E-01  1.122538703661E-01  1.177398217141E-01  1.234938766215E-01
  1.295291375591E-01  1.358593473281E-01  1.424989203530E-01  1.476906872574E-01
  1.530716095851E-01  1.586485789732E-01  1.644287381471E-01  1.704194900681E-01
  1.766285074152E-01  1.830637424114E-01  1.897334370091E-01  1.966461334456E-01
  2.038106851838E-01  2.112362682513E-01  2.163363567119E-01  2.215595817084E-01
  2.269089162491E-01  2.323874051231E-01  2.379981666323E-01  2.437443943675E-01
  2.496293590251E-01  2.556564102694E-01  2.618289786390E-01  2.681505774992E-01
  2.746248050424E-01  2.812553463353E-01  2.880459754172E-01  2.950005574477E-01
  3.021230509067E-01  3.094175098478E-01  3.168880862056E-01  3.245390321589E-01
  3.323747025514E-01  3.403995573698E-01  3.486181642829E-01  3.570352012414E-01
  3.656554591401E-01  3.744838445456E-01  3.835253824883E-01  3.927852193231E-01
  4.022686256585E-01  4.119809993564E-01  4.219278686048E-01  4.269910030281E-01
  4.321148950644E-01  4.373002738052E-01  4.425478770908E-01  4.478584516159E-01
  4.532327530353E-01  4.586715460717E-01  4.641756046246E-01  4.697457118801E-01
  4.753826604227E-01  4.810872523477E-01  4.868602993759E-01  4.927026229684E-01
  4.986150544440E-01  5.045984350974E-01  5.106536163185E-01  5.167814597144E-01
  5.229828372309E-01  5.292586312777E-01  5.356097348530E-01  5.420370516713E-01
  5.485414962913E-01  5.551239942468E-01  5.617854821778E-01  5.685269079639E-01
  5.753492308595E-01  5.822534216298E-01  5.892404626894E-01  5.963113482416E-01
  6.034670844205E-01  6.107086894336E-01  6.180371937068E-01  6.254536400313E-01
  6.329590837116E-01  6.405545927162E-01  6.482412478288E-01  6.560201428027E-01
  6.638923845163E-01  6.718590931305E-01  6.799214022481E-01  6.880804590751E-01
  6.963374245840E-01  7.046934736790E-01  7.131497953631E-01  7.217075929075E-01
  7.303680840224E-01  7.391325010307E-01  7.480020910430E-01  7.569781161355E-01
  7.660618535292E-01  7.752545957715E-01  7.845576509208E-01  7.939723427318E-01
  8.035000108446E-01  8.131420109747E-01  8.228997151064E-01  8.327745116877E-01
  8.427678058280E-01  8.528810194979E-01  8.631155917319E-01  8.734729788327E-01
  8.839546545787E-01  8.945621104336E-01  9.052968557588E-01  9.161604180279E-01
  9.271543430442E-01  9.382801951608E-01  9.495395575027E-01  9.609340321927E-01
  9.724652405790E-01  9.841348234660E-01  9.959444413476E-01  1.007895774644E+00
  1.019990523939E+00  1.032230410227E+00  1.044617175149E+00  1.057152581251E+00
  1.069838412226E+00  1.082676473173E+00  1.095668590851E+00  1.108816613941E+00
  1.122122413309E+00  1.135587882268E+00  1.149214936856E+00  1.163005516098E+00
  1.176961582291E+00  1.191085121278E+00  1.205378142734E+00  1.219842680447E+00
  1.234480792612E+00  1.249294562123E+00  1.264286096869E+00  1.279457530031E+00
  1.294811020392E+00  1.310348752636E+00  1.326072937668E+00  1.341985812920E+00
  1.358089642675E+00  1.374386718387E+00  1.390879359008E+00  1.407569911316E+00
  1.424460750252E+00  1.441554279255E+00  1.458852930606E+00  1.476359165773E+00
  1.494075475762E+00  1.512004381471E+00  1.530148434049E+00  1.548510215258E+00
  1.567092337841E+00  1.585897445895E+00  1.604928215246E+00  1.624187353828E+00
  1.643677602074E+00  1.663401733299E+00  1.683362554099E+00  1.703562904748E+00
  1.724005659605E+00  1.744693727520E+00  1.765630052251E+00  1.786817612878E+00
  1.808259424232E+00  1.829958537323E+00  1.851918039771E+00  1.874141056248E+00
  1.896630748923E+00  1.919390317910E+00  1.942423001725E+00  1.965732077746E+00
  1.989320862679E+00  2.013192713031E+00  2.037351025587E+00  2.061799237894E+00
  2.086540828749E+00  2.111579318694E+00  2.136918270518E+00  2.162561289764E+00
  2.188512025242E+00  2.214774169545E+00  2.241351459579E+00  2.268247677094E+00
  2.295466649219E+00  2.323012249010E+00  2.350888395998E+00  2.379099056750E+00
  2.407648245431E+00  2.436540024376E+00  2.465778504669E+00  2.495367846725E+00
  2.525312260885E+00  2.555616008016E+00  2.586283400112E+00  2.617318800913E+00
  2.648726626524E+00  2.680511346043E+00  2.712677482195E+00  2.745229611982E+00
  2.778172367325E+00  2.811510435733E+00  2.845248560962E+00  2.879391543694E+00
  2.913944242218E+00  2.948911573124E+00  2.984298512002E+00  3.020110094146E+00
  3.056351415276E+00  3.093027632259E+00  3.130143963846E+00  3.167705691412E+00
  3.205718159709E+00  3.244186777626E+00  3.283117018957E+00  3.322514423185E+00
  3.362384596263E+00  3.402733211418E+00  3.443566009955E+00  3.484888802075E+00
  3.526707467700E+00  3.569027957312E+00  3.611856292800E+00  3.655198568313E+00
  3.699060951133E+00  3.743449682547E+00  3.788371078737E+00  3.833831531682E+00
  3.879837510062E+00  3.926395560183E+00  3.973512306905E+00  4.021194454588E+00
  4.069448788043E+00  4.118282173500E+00  4.167701559582E+00  4.217713978297E+00
  4.268326546036E+00  4.319546464589E+00  4.371381022164E+00  4.423837594430E+00
  4.476923645563E+00  4.530646729309E+00  4.585014490061E+00  4.640034663942E+00
  4.695715079909E+00  4.752063660868E+00  4.809088424799E+00  4.866797485896E+00
  4.925199055727E+00  4.984301444396E+00  5.044113061728E+00  5.104642418469E+00
  5.165898127491E+00  5.227888905021E+00  5.290623571881E+00  5.354111054743E+00
  5.418360387400E+00  5.483380712049E+00  5.549181280594E+00  5.615771455961E+00
  5.683160713432E+00  5.751358641994E+00  5.820374945698E+00  5.890219445046E+00
  5.960902078386E+00  6.032432903327E+00  6.104822098167E+00  6.178079963345E+00
  6.252216922905E+00  6.327243525980E+00  6.403170448292E+00  6.480008493671E+00
  6.557768595595E+00  6.636461818742E+00  6.716099360567E+00  6.796692552894E+00
  6.878252863529E+00  6.960791897891E+00  7.044321400666E+00  7.128853257474E+00
  7.214399496564E+00  7.300972290522E+00  7.388583958009E+00  7.477246965505E+00
  7.566973929091E+00  7.657777616240E+00  7.749670947635E+00  7.842666999006E+00
  7.936779002994E+00  8.032020351030E+00  8.128404595243E+00  8.225945450386E+00
  8.324656795790E+00  8.424552677340E+00  8.525647309468E+00  8.627955077181E+00
  8.731490538108E+00  8.836268424565E+00  8.942303645660E+00  9.049611289408E+00
  9.158206624881E+00  9.268105104379E+00  9.379322365632E+00  9.491874234019E+00
  9.605776724827E+00  9.721046045525E+00  9.837698598072E+00  9.955750981249E+00
  1.007521999302E+01  1.019612263294E+01  1.031847610454E+01  1.044229781779E+01
  1.056760539160E+01  1.069441665630E+01  1.082274965618E+01  1.095262265205E+01
  1.108405412388E+01  1.121706277336E+01  1.135166752664E+01  1.148788753696E+01
  1.162574218741E+01  1.176525109366E+01  1.190643410678E+01  1.204931131606E+01
  1.219390305185E+01  1.234022988848E+01  1.248831264714E+01  1.263817239890E+01
  1.278983046769E+01  1.294330843330E+01  1.309862813450E+01  1.325581167212E+01
  1.341488141218E+01  1.357585998913E+01  1.373877030900E+01  1.390363555271E+01
  1.407047917934E+01  1.423932492949E+01  1.441019682864E+01  1.458311919059E+01
  1.475811662087E+01  1.493521402032E+01  1.511443658857E+01  1.529580982763E+01
  1.547935954556E+01  1.566511186011E+01  1.585309320243E+01  1.604333032086E+01
  1.623585028471E+01  1.643068048813E+01  1.662784865398E+01  1.682738283783E+01
  1.702931143189E+01  1.723366316907E+01  1.744046712710E+01  1.764975273262E+01
  1.786154976541E+01  1.807588836260E+01  1.829279902295E+01  1.851231261123E+01
  1.873446036256E+01  1.895927388691E+01  1.918678517355E+01  1.941702659564E+01
  1.965003091478E+01  1.988583128576E+01  2.012446126119E+01  2.036595479633E+01
  2.061034625388E+01  2.085767040893E+01  2.110796245384E+01  2.136125800328E+01
  2.161759309932E+01  2.187700421651E+01  2.213952826711E+01  2.240520260632E+01
  2.267406503759E+01  2.294615381804E+01  2.322150766386E+01  2.350016575583E+01
  2.378216774490E+01  2.406755375783E+01  2.435636440293E+01  2.464864077576E+01
  2.494442446507E+01  2.524375755865E+01  2.554668264936E+01  2.585324284115E+01
  2.616348175524E+01  2.647744353631E+01  2.679517285874E+01  2.711671493305E+01
  2.744211551224E+01  2.777142089839E+01  2.810467794917E+01  2.844193408456E+01
  2.878323729358E+01  2.912863614110E+01  2.947817977479E+01  2.983191793209E+01
  3.018990094727E+01  3.055217975864E+01  3.091880591575E+01  3.128983158673E+01
  3.166530956578E+01  3.204529328056E+01  3.242983679993E+01  3.281899484153E+01
  3.321282277963E+01  3.361137665298E+01  3.401471317282E+01  3.442288973089E+01
  3.483596440767E+01  3.525399598056E+01  3.567704393232E+01  3.610516845951E+01
  3.653843048103E+01  3.697689164680E+01  3.742061434656E+01  3.786966171872E+01
  3.832409765934E+01  3.878398683126E+01  3.924939467323E+01  3.972038740931E+01
  4.019703205822E+01  4.067939644292E+01  4.116754920023E+01  4.166155979064E+01
  4.216149850812E+01  4.266743649022E+01  4.317944572810E+01  4.369759907684E+01
  4.422197026576E+01
</grid-data>
</grid>
<valence-charge total-charge="10" is-unscreening-charge="yes"
 rescaled-to-z-pseudo="no">
<radfunc>
<data npts="457">
  6.575349217978E-01  6.585725987290E-01  6.616744976592E-01  6.668493177910E-01
  6.740436511983E-01  6.835026603194E-01  6.955567702161E-01  7.093580110143E-01
  7.248737795316E-01  7.429645966209E-01  7.633521161039E-01  7.855071884851E-01
  8.122761712557E-01  8.402257058957E-01  8.731856911675E-01  9.060905359253E-01
  9.439656361621E-01  9.798514136015E-01  1.020175242761E+00  1.065470234839E+00
  1.116329209816E+00  1.161462297135E+00  1.210945336819E+00  1.265178404356E+00
  1.324594210775E+00  1.389659823987E+00  1.460878243122E+00  1.518653414646E+00
  1.580434694765E+00  1.646476401138E+00  1.717045187497E+00  1.792419974010E+00
  1.872891726875E+00  1.958763055325E+00  2.050347589221E+00  2.147969094740E+00
  2.251960279416E+00  2.362661230751E+00  2.440359968424E+00  2.521297506167E+00
  2.605577234113E+00  2.693302288684E+00  2.784575044515E+00  2.879496538633E+00
  2.978165820520E+00  3.080679221321E+00  3.187129535086E+00  3.297605104568E+00
  3.412188803817E+00  3.530956909513E+00  3.653977852841E+00  3.781310843564E+00
  3.913004358035E+00  4.049094483018E+00  4.189603107607E+00  4.334535956084E+00
  4.483880455494E+00  4.637603432881E+00  4.795648638783E+00  4.957934095646E+00
  5.124349272436E+00  5.294752089980E+00  5.468965765506E+00  5.646775509597E+00
  5.827925094401E+00  6.012113318519E+00  6.198990401641E+00  6.293313781209E+00
  6.388154350728E+00  6.483453110270E+00  6.579147349423E+00  6.675170540254E+00
  6.771452233421E+00  6.867917958119E+00  6.964489126653E+00  7.061082944442E+00
  7.157612326351E+00  7.253985820287E+00  7.350107539057E+00  7.445877101548E+00
  7.541189584342E+00  7.635935484942E+00  7.730000697840E+00  7.823266504692E+00
  7.915609579945E+00  8.006902013284E+00  8.097011350297E+00  8.185800652826E+00
  8.273128580448E+00  8.358849494591E+00  8.442813586755E+00  8.524867032347E+00
  8.604852171570E+00  8.682607718821E+00  8.757969001963E+00  8.830768232814E+00
  8.900834810056E+00  8.967995655716E+00  9.032075586214E+00  9.092897718821E+00
  9.150283914225E+00  9.204055255662E+00  9.254032564889E+00  9.300036954995E+00
  9.341890419779E+00  9.379416459129E+00  9.412440739492E+00  9.440791788189E+00
  9.464301719935E+00  9.482806993543E+00  9.496149196361E+00  9.504175853559E+00
  9.506741258958E+00  9.503707323600E+00  9.494944437852E+00  9.480332342339E+00
  9.459761002579E+00  9.433131481765E+00  9.400356805711E+00  9.361362813622E+00
  9.316088987978E+00  9.264489256559E+00  9.206532759344E+00  9.142204572869E+00
  9.071506384488E+00  8.994457108916E+00  8.911093439498E+00  8.821470326716E+00
  8.725661376681E+00  8.623759162611E+00  8.515875442699E+00  8.402141278231E+00
  8.282707046366E+00  8.157742342638E+00  8.027435768963E+00  7.891994603708E+00
  7.751644351276E+00  7.606628169523E+00  7.457206174352E+00  7.303654621763E+00
  7.146264968716E+00  6.985342815187E+00  6.821206730842E+00  6.654186970821E+00
  6.484624086160E+00  6.312867435401E+00  6.139273604971E+00  5.964204746884E+00
  5.788026843312E+00  5.611107908507E+00  5.433816139516E+00  5.256518028020E+00
  5.079576446557E+00  4.903348723252E+00  4.728184720029E+00  4.554424930116E+00
  4.382398611406E+00  4.212421972936E+00  4.044796432338E+00  3.879806962600E+00
  3.717720546718E+00  3.558784758952E+00  3.403226491140E+00  3.251250842133E+00
  3.103040187653E+00  2.958753446754E+00  2.818525559201E+00  2.682467185901E+00
  2.550664642004E+00  2.423180069307E+00  2.300051851314E+00  2.181295885887E+00
  2.066909608818E+00  1.956877611537E+00  1.851173020567E+00  1.749757640646E+00
  1.652583032771E+00  1.559591249357E+00  1.470715619400E+00  1.385881518936E+00
  1.305007129023E+00  1.228004178494E+00  1.154778668604E+00  1.085231577308E+00
  1.019259540979E+00  9.567555117209E-01  8.976093886478E-01  8.417086217270E-01
  7.889387870575E-01  7.391841326444E-01  6.923280939598E-01  6.482537787796E-01
  6.068444209801E-01  5.679838031557E-01  5.315566480951E-01  4.974489793050E-01
  4.655484509242E-01  4.357446475013E-01  4.079293542387E-01  3.819967984151E-01
  3.578438628049E-01  3.353702720022E-01  3.144787526405E-01  2.950751685704E-01
  2.770686321172E-01  2.603715925962E-01  2.448999033000E-01  2.305728682115E-01
  2.173132697159E-01  2.050473786035E-01  1.937049476615E-01  1.832191901517E-01
  1.735267444652E-01  1.645676262257E-01  1.562851690949E-01  1.486259555003E-01
  1.415397384723E-01  1.349793557372E-01  1.289006371658E-01  1.232623066263E-01
  1.180258792390E-01  1.131555549703E-01  1.086181094450E-01  1.043827827972E-01
  1.004211673139E-01  9.670709456776E-02  9.321652267040E-02  8.992742421970E-02
  8.681967545365E-02  8.387494706729E-02  8.107659709471E-02  7.840956620584E-02
  7.586027571949E-02  7.341652858794E-02  7.106741356601E-02  6.880321273841E-02
  6.661531254264E-02  6.449611839229E-02  6.243897297521E-02  6.043807827408E-02
  5.848842133275E-02  5.658570376969E-02  5.472627502088E-02  5.290706927695E-02
  5.112554606484E-02  4.937963441051E-02  4.766768050845E-02  4.598839881323E-02
  4.434082646069E-02  4.272428091856E-02  4.113832076105E-02  3.958270945685E-02
  3.805738205616E-02  3.656241465971E-02  3.509799655037E-02  3.366440486679E-02
  3.226198169764E-02  3.089111347508E-02  2.955221254640E-02  2.824570080364E-02
  2.697199525267E-02  2.573149540441E-02  2.452457237350E-02  2.335155957176E-02
  2.221274488663E-02  2.110836423750E-02  2.003859640622E-02  1.900355904108E-02
  1.800330573710E-02  1.703782409905E-02  1.610703469725E-02  1.521079082984E-02
  1.434887900907E-02  1.352102009302E-02  1.272687098786E-02  1.196602684969E-02
  1.123802371864E-02  1.054234152316E-02  9.878407391856E-03  9.245599220509E-03
  8.643249440161E-03  8.070648938049E-03  7.527051086350E-03  7.011675837122E-03
  6.523713845164E-03  6.062330583812E-03  5.626670421869E-03  5.215860632926E-03
  4.829015311323E-03  4.465239171871E-03  4.123631213210E-03  3.803288227333E-03
  3.503308140357E-03  3.222793172036E-03  2.960852803827E-03  2.716606547500E-03
  2.489186508381E-03  2.277739739231E-03  2.081430382628E-03  1.899441601394E-03
  1.730977298220E-03  1.575263627068E-03  1.431550300292E-03  1.299111696611E-03
  1.177247776151E-03  1.065284809753E-03  9.625759305659E-04  8.685015166780E-04
  7.824694141408E-04  7.039150102378E-04  6.323011672240E-04  5.671180270446E-04
  5.078826977114E-04  4.541388320959E-04  4.054561098818E-04  3.614296333216E-04
  3.216792472657E-04  2.858487936815E-04  2.536053105638E-04  2.246381847683E-04
  1.986582678718E-04  1.753969636997E-04  1.546052956539E-04  1.360529614459E-04
  1.195273822821E-04  1.048327529815E-04  9.178909892804E-05  8.023134517863E-05
  7.000840247386E-05  6.098227432869E-05  5.302718882843E-05  4.602875821904E-05
  3.988316886699E-05  3.449640367586E-05  2.978349858568E-05  2.566783435071E-05
  2.208046439227E-05  1.895947915692E-05  1.624940707788E-05  1.390065193804E-05
  1.186896616769E-05  1.011495937697E-05  8.603641222034E-06  7.303997533885E-06
  6.188598497436E-06  5.233237554947E-06  4.416599620035E-06  3.719957124260E-06
  3.126892375899E-06  2.623044687643E-06  2.195880724752E-06  1.834486535375E-06
  1.529379748547E-06  1.272340460574E-06  1.056259375552E-06  8.750018186696E-07
  7.232863002118E-07  5.965763722811E-07  4.909845878212E-07  4.031874413151E-07
  3.303502414777E-07  2.700609373744E-07  2.202719898591E-07  1.792494493236E-07
  1.455284678923E-07  1.178745389071E-07  9.524981843810E-08  7.678394234986E-08
  6.174880793376E-08  4.953684116773E-08  3.964231920681E-08  3.164536274192E-08
  2.519825442324E-08  2.001377770694E-08  1.585530536395E-08  1.252839861596E-08
  9.873706599546E-09  7.760981768877E-09  6.084050111570E-09  4.756595853783E-09
  3.708638855318E-09  2.883599326240E-09  2.235859013151E-09  1.728740779045E-09
  1.332839701494E-09  1.024648596822E-09  7.854293904899E-10  6.002891336390E-10
  4.574258397775E-10  3.475148009368E-10  2.632107459009E-10  1.987452212537E-10
  1.496019963629E-10  1.122561944338E-10  8.396530343137E-11  6.260228509081E-11
  4.652273232980E-11  3.445947337763E-11  2.543922706549E-11  1.871691473641E-11
  1.372406198956E-11  1.002840545914E-11  7.302379652771E-12  5.298616725295E-12
  3.830965128222E-12  2.759835921469E-12  1.980930455793E-12  1.416600463634E-12
  1.009249976093E-12  7.163151158761E-13  5.064586734357E-13  3.566963901614E-13
  2.502351057501E-13  1.748526995914E-13  1.216887772068E-13  8.434552182879E-14
  5.822182582597E-14  4.002216753906E-14  2.739585253750E-14  1.867310878863E-14
  1.267283902040E-14  8.563164869768E-15  5.760698214795E-15  3.858099528831E-15
  2.572207391682E-15  1.707061902161E-15  1.127663392842E-15  7.414340325620E-16
  4.851812123302E-16  3.159724087955E-16  2.047778949638E-16  1.320627724618E-16
  8.474528716109E-17  5.410813740992E-17  3.437124431984E-17  2.172135968175E-17
  1.365560536896E-17  8.539646574289E-18  5.311855910748E-18  3.286262493743E-18
  2.021992678707E-18  1.237227937125E-18  7.528072072424E-19  4.554623465958E-19
  2.739846583518E-19  1.638608109172E-19  9.742461738977E-20  5.758062363567E-20
  3.382727176308E-20  1.975190735285E-20  1.146227036536E-20  6.610272651758E-21
  3.788111416947E-21  0.000000000000E+00  0.000000000000E+00  0.000000000000E+00
  0.000000000000E+00
</data>
</radfunc>
</valence-charge>
<pseudocore-charge matching-radius="0.625453640031"
 number-of-continuous-derivatives="4">
<annotation model-charge-form="Teter function with specified parameters" />
<radfunc>
<data npts="256">
  5.510333354787E+01  5.509640738256E+01  5.507570513821E+01  5.504117466163E+01
  5.499318202902E+01  5.493010610101E+01  5.484976482831E+01  5.475783340551E+01
  5.465455085690E+01  5.453422002441E+01  5.439873237749E+01  5.425164188359E+01
  5.407411835896E+01  5.388899825457E+01  5.367099678323E+01  5.345368842172E+01
  5.320396125842E+01  5.296775019833E+01  5.270278956751E+01  5.240574740486E+01
  5.207295044570E+01  5.177826918727E+01  5.145588508147E+01  5.110339154050E+01
  5.071821435927E+01  5.029760910943E+01  4.983866085814E+01  4.946743876684E+01
  4.907155746928E+01  4.864960771580E+01  4.820013497356E+01  4.772164395731E+01
  4.721260443618E+01  4.667145849667E+01  4.609662945622E+01  4.548653263523E+01
  4.483958820660E+01  4.415423635062E+01  4.367524384026E+01  4.317806610829E+01
  4.266228003961E+01  4.212748026386E+01  4.157328273512E+01  4.099932860835E+01
  4.040528842103E+01  3.979086658618E+01  3.915580620048E+01  3.849989416790E+01
  3.782296663542E+01  3.712491473288E+01  3.640569060397E+01  3.566531370890E+01
  3.490387737261E+01  3.412155554456E+01  3.331860972686E+01  3.249539601832E+01
  3.165237221048E+01  3.079010486041E+01  2.990927625183E+01  2.901069114291E+01
  2.809528318439E+01  2.716412087691E+01  2.621841292122E+01  2.525951279974E+01
  2.428892241297E+01  2.330829458053E+01  2.231943420406E+01  2.182252236826E+01
  2.132429787877E+01  2.082502865834E+01  2.032499173314E+01  1.982447305258E+01
  1.932376727274E+01  1.882317750170E+01  1.832301500519E+01  1.782359887097E+01
  1.732525563049E+01  1.682831883646E+01  1.633312859512E+01  1.584003105202E+01
  1.534937783053E+01  1.486152542219E+01  1.437683452842E+01  1.389566935332E+01
  1.341839684740E+01  1.294538590266E+01  1.247700649932E+01  1.201362880529E+01
  1.155562222948E+01  1.110335443062E+01  1.065719028357E+01  1.021749080566E+01
  9.784612045761E+00  9.358903939718E+00  8.940709135779E+00  8.530361794490E+00
  8.128186367884E+00  7.734496363350E+00  7.349593098091E+00  6.973764450587E+00
  6.607283615986E+00  6.250407872858E+00  5.903377369190E+00  5.566413935967E+00
  5.239719937085E+00  4.923477164692E+00  4.617845789370E+00  4.322963374815E+00
  4.038943966835E+00  3.765877266572E+00  3.503827897877E+00  3.252834778612E+00
  3.012910605493E+00  2.784041461707E+00  2.566186556106E+00  2.359278102169E+00
  2.163221344189E+00  1.977894737270E+00  1.803150286682E+00  1.638814050968E+00
  1.484686811850E+00  1.340544912558E+00  1.206141264572E+00  1.081206521105E+00
  9.654504137589E-01  8.585632469482E-01  7.602175426168E-01  6.700698257908E-01
  5.877625394187E-01  5.129260749097E-01  4.451809027724E-01  3.841397858279E-01
  3.294100556696E-01  2.805959313933E-01  2.373008581846E-01  1.991298421573E-01
  1.656917569283E-01  1.366015968443E-01  1.114826515616E-01  8.996857687288E-02
  7.170533729091E-02  5.635299696309E-02  4.358733701597E-02  3.310127941499E-02
  2.460609986673E-02  1.783241516811E-02  1.253093368645E-02  8.472961292160E-03
  5.450659002311E-03  3.277052758252E-03  1.785800069179E-03  8.307226123398E-04
  2.851181852035E-04  4.086954500915E-05  7.371531875870E-06  1.103013379136E-04
  2.902597442896E-04  5.013134961815E-04  7.094706288008E-04  8.911214191356E-04
  1.031477661126E-03  1.123042114418E-03  1.164138254294E-03  1.157527878913E-03
  1.109140767810E-03  1.026936523262E-03  9.199140855697E-04  7.972793450883E-04
  6.677759530671E-04  5.391790533971E-04  4.179464228759E-04  3.090166253609E-04
  2.157394546836E-04  1.399203442420E-04  8.195771161087E-05  4.105050057500E-05
  1.545255090237E-05  2.750885622177E-06  1.465178188127E-07  4.718848004039E-06
  1.365799847402E-05  2.445331408229E-05  3.503051296013E-05  4.383433473165E-05
  4.985773812667E-05  5.262248449438E-05  5.211907641109E-05  4.871631475110E-05
  4.305206745500E-05  3.591715520335E-05  2.814357814375E-05  2.050673704884E-05
  1.364901684555E-05  8.029333638735E-06  3.900270158238E-06  1.311525516337E-06
  1.358575005398E-07  1.117343473274E-07  8.957096167694E-07  2.117177917223E-06
  3.428657662134E-06  4.545983274179E-06  5.274593430032E-06  5.520231128856E-06
  5.284548333649E-06  4.648055349927E-06  3.744331095908E-06  2.730240743152E-06
  1.757009407966E-06  9.463961103473E-07  3.750240308233E-07  6.835802430446E-08
  0.000000000000E+00  0.000000000000E+00  0.000000000000E+00  0.000000000000E+00
  0.000000000000E+00  0.000000000000E+00  0.000000000000E+00  0.000000000000E+00
  0.000000000000E+00  0.000000000000E+00  0.000000000000E+00  0.000000000000E+00
  0.000000000000E+00  0.000000000000E+00  0.000000000000E+00  0.000000000000E+00
  0.000000000000E+00  0.000000000000E+00  0.000000000000E+00  0.000000000000E+00
  0.000000000000E+00  0.000000000000E+00  0.000000000000E+00  0.000000000000E+00
  0.000000000000E+00  0.000000000000E+00  0.000000000000E+00  0.000000000000E+00
  0.000000000000E+00  0.000000000000E+00  0.000000000000E+00  0.000000000000E+00
  0.000000000000E+00  0.000000000000E+00  0.000000000000E+00  0.000000000000E+00
  0.000000000000E+00  0.000000000000E+00  0.000000000000E+00  0.000000000000E+00
  0.000000000000E+00  0.000000000000E+00  0.000000000000E+00  0.000000000000E+00
</data>
</radfunc>
</pseudocore-charge>
<semilocal-potentials set="scalar_relativistic">
<slps n="3" l="s" rc="1.45885293061" eref="-1.72105969152">
<radfunc>
<data npts="256">
  7.744850674189E+00  7.740348789075E+00  7.726898968768E+00  7.704486110501E+00
  7.673378583369E+00  7.632570826359E+00  7.580718196952E+00  7.521556547831E+00
  7.455307031208E+00  7.378410136424E+00  7.292196086582E+00  7.199037962021E+00
  7.087209338949E+00  6.971292695546E+00  6.835690472815E+00  6.701481827938E+00
  6.548424225697E+00  6.404790987268E+00  6.244978410684E+00  6.067431019546E+00
  5.870510150585E+00  5.697878064891E+00  5.510854252871E+00  5.308525111135E+00
  5.089973082153E+00  4.854288320822E+00  4.600582504685E+00  4.397963130200E+00
  4.184388025730E+00  3.959540444725E+00  3.723131293568E+00  3.474904688064E+00
  3.214643826017E+00  2.942177122637E+00  2.657384541337E+00  2.360204037894E+00
  2.050638021649E+00  1.728759723843E+00  1.507404865804E+00  1.280707656844E+00
  1.048749893210E+00  8.116311114810E-01  5.694691938766E-01  3.224009064961E-01
  7.058236269141E-02 -1.858105957664E-01 -4.465821064744E-01 -7.115160891268E-01
 -9.803761482650E-01 -1.252905580077E+00 -1.528827486083E+00 -1.807844995256E+00
 -2.089641594717E+00 -2.373881567692E+00 -2.660210535941E+00 -2.948256102338E+00
 -3.237628587871E+00 -3.527921855923E+00 -3.818714215476E+00 -4.109569393776E+00
 -4.400037568146E+00 -4.689656446012E+00 -4.977952381901E+00 -5.264441520168E+00
 -5.548630952601E+00 -5.830019880808E+00 -6.108100774490E+00 -6.245740546963E+00
 -6.382360518267E+00 -6.517895861724E+00 -6.652281541785E+00 -6.785452348257E+00
 -6.917342930230E+00 -7.047887829744E+00 -7.177021515218E+00 -7.304678414726E+00
 -7.430792949175E+00 -7.555299565474E+00 -7.678132769801E+00 -7.799227161080E+00
 -7.918517464804E+00 -8.035938567337E+00 -8.151425550870E+00 -8.264913729184E+00
 -8.376338684416E+00 -8.485636305015E+00 -8.592742825078E+00 -8.697594865296E+00
 -8.800129475694E+00 -8.900284180397E+00 -8.997997024615E+00 -9.093206624068E+00
 -9.185852217027E+00 -9.275873719175E+00 -9.363211781428E+00 -9.447807850875E+00
 -9.529604234947E+00 -9.608544168893E+00 -9.684571886618E+00 -9.757632694876E+00
 -9.827673050792E+00 -9.894640642606E+00 -9.958484473510E+00 -1.001915494837E+01
 -1.007660396308E+01 -1.013078499625E+01 -1.018165320282E+01 -1.022916550925E+01
 -1.027328070977E+01 -1.031395956310E+01 -1.035116488937E+01 -1.038486166626E+01
 -1.041501712420E+01 -1.044160083973E+01 -1.046458482660E+01 -1.048394362411E+01
 -1.049965438205E+01 -1.051169694198E+01 -1.052005391444E+01 -1.052471075182E+01
 -1.052565581685E+01 -1.052288044674E+01 -1.051637901304E+01 -1.050614897784E+01
 -1.049219094655E+01 -1.047450871841E+01 -1.045310933549E+01 -1.042800313156E+01
 -1.039920378252E+01 -1.036672836003E+01 -1.033059739074E+01 -1.029083492352E+01
 -1.024746860761E+01 -1.020052978497E+01 -1.015005360047E+01 -1.009607913386E+01
 -1.003864955816E+01 -9.977812329027E+00 -9.913619410542E+00 -9.846127542755E+00
 -9.775398556888E+00 -9.701499744137E+00 -9.624504284185E+00 -9.544491739413E+00
 -9.461548620605E+00 -9.375769029430E+00 -9.287255382236E+00 -9.196119218597E+00
 -9.102482096527E+00 -9.006476574346E+00 -8.908247276635E+00 -8.807952038665E+00
 -8.705763119919E+00 -8.601868472880E+00 -8.496473048077E+00 -8.389800110484E+00
 -8.282092535679E+00 -8.173614046906E+00 -8.064650346273E+00 -7.955510085083E+00
 -7.846525609833E+00 -7.738053412092E+00 -7.630474202677E+00 -7.524192523574E+00
 -7.419635805644E+00 -7.317252776545E+00 -7.217511122346E+00 -7.120894308281E+00
 -7.027897469488E+00 -6.939022291695E+00 -6.854770814494E+00 -6.773542448197E+00
 -6.693218502297E+00 -6.613847557539E+00 -6.535417913267E+00 -6.457918149676E+00
 -6.381337091805E+00 -6.305663799300E+00 -6.230887546871E+00 -6.156997802269E+00
 -6.083984202602E+00 -6.011836530393E+00 -5.940544690802E+00 -5.870098691350E+00
 -5.800488625293E+00 -5.731704659554E+00 -5.663737027756E+00 -5.596576028523E+00
 -5.530212028796E+00 -5.464635471489E+00 -5.399836886456E+00 -5.335806903450E+00