<?xml version="1.0" encoding="UTF-8" ?>
<psml version="1.1" energy_unit="hartree" length_unit="bohr"
 uuid="363f7480-23d3-11e8-7965-42f9e6e5cc69"
 xmlns="http://esl.cecam.org/PSML/ns/1.1">
<provenance creator="ONCVPSP-3.3.0+psml-3.3.0-73 (scalar-relativistic)"
 date="2018-03-09">
<annotation action="semilocal-pseudopotential-generation"
 action-cont="projectors-generation" />
<input-file name="oncvpsp-input">
<![CDATA[# atsym z nc nv iexc psfile
Cd 48 6 4 -001012 upf
# n l f
1 0 2.0
2 0 2.0
2 1 6.0
3 0 2.0
3 1 6.0
3 2 10.0
4 0 2.0
4 1 6.0
4 2 10.0
5 0 2.0
# lmax
2
# l rc ep ncon nbas qcut
0 1.25 0.0 4 8 10.0
1 1.3 0.0 4 8 10.0
2 1.35 0.0 4 8 10.0
# lloc lpopt rc5 dvloc0
4 5 1.25 0.0
# l nproj debl
0 2 2.0
1 2 2.0
2 2 2.0
# icmod fcfact rcfact
3 6.0 1.26
# epsh1 epsh2 depsh
-12.0 12.0 0.02
# rlmax drl
6.0 0.01
 0
]]>
</input-file>
</provenance>
<pseudo-atom-spec atomic-label="Cd" atomic-number="48" z-pseudo="20"
 flavor="Hamann&apos;s oncvpsp" relativity="scalar" spin-dft="no"
 core-corrections="yes">
<annotation pseudo-energy="-168.093093376" />
<exchange-correlation>
<annotation oncvpsp-xc-code="-1012" oncvpsp-xc-type="libxc-interface" />
<libxc-info number-of-functionals="2">
<functional name="Slater exchange (LDA)" type="exchange" id="1" />
<functional name="Perdew &amp; Wang (LDA)" type="correlation" id="12" />
</libxc-info>
</exchange-correlation>
<valence-configuration total-valence-charge="20">
<shell n="4" l="s" occupation="2" />
<shell n="4" l="p" occupation="6" />
<shell n="4" l="d" occupation="10" />
<shell n="5" l="s" occupation="2" />
</valence-configuration>
</pseudo-atom-spec>
<grid npts="457">
<annotation type="sampled from oncvpsp log grid"
 recipe="r(i:1..N) = r1*exp(a*(i-1)) + r=0; resampled"
 recipe-cont="r1: scale; a: step" scale="0.104166666667E-04"
 step="0.119285708653E-01" delta="0.500000000000E-02" rmax="44.0153601024" />
<grid-data>
  0.000000000000E+00  5.026136093974E-03  1.003931241072E-02  1.506056948927E-02
  2.029337154766E-02  2.545563554462E-02  3.080861283122E-02  3.597649143716E-02
  4.102083010503E-02  4.621783200185E-02  5.145578192561E-02  5.660806138672E-02
  6.227623979354E-02  6.769957927664E-02  7.272254093181E-02  7.811818058674E-02
  8.391414903812E-02  8.907129311261E-02  9.454538177047E-02  1.003558935966E-01
  1.065235042789E-01  1.117294072913E-01  1.171897276397E-01  1.229168989365E-01
  1.289239624366E-01  1.352245967329E-01  1.418331489041E-01  1.470006592726E-01
  1.523564413084E-01  1.579073544501E-01  1.636605080513E-01  1.696232704860E-01
  1.758032785853E-01  1.822084474188E-01  1.888469804314E-01  1.957273799500E-01
  2.028584580733E-01  2.102493479572E-01  2.153256082143E-01  2.205244296990E-01
  2.258487715297E-01  2.313016642695E-01  2.368862116516E-01  2.426055923457E-01
  2.484630617673E-01  2.544619539307E-01  2.606056833464E-01  2.668977469651E-01
  2.733417261678E-01  2.799412888044E-01  2.867001912813E-01  2.936222806996E-01
  3.007114970448E-01  3.079718754294E-01  3.154075483898E-01  3.230227482381E-01
  3.308218094716E-01  3.388091712395E-01  3.469893798699E-01  3.553670914575E-01
  3.639470745136E-01  3.727342126807E-01  3.817335075116E-01  3.909500813170E-01
  4.003891800803E-01  4.100561764442E-01  4.199565727682E-01  4.249960516415E-01
  4.300960042611E-01  4.352571563123E-01  4.404802421880E-01  4.457660050943E-01
  4.511151971554E-01  4.565285795213E-01  4.620069224755E-01  4.675510055452E-01
  4.731616176118E-01  4.788395570231E-01  4.845856317074E-01  4.904006592879E-01
  4.962854671994E-01  5.022408928057E-01  5.082677835194E-01  5.143669969216E-01
  5.205394008847E-01  5.267858736953E-01  5.331073041797E-01  5.395045918298E-01
  5.459786469318E-01  5.525303906950E-01  5.591607553833E-01  5.658706844479E-01
  5.726611326613E-01  5.795330662532E-01  5.864874630482E-01  5.935253126048E-01
  6.006476163561E-01  6.078553877524E-01  6.151496524054E-01  6.225314482343E-01
  6.300018256131E-01  6.375618475204E-01  6.452125896907E-01  6.529551407670E-01
  6.607906024562E-01  6.687200896856E-01  6.767447307619E-01  6.848656675310E-01
  6.930840555414E-01  7.014010642079E-01  7.098178769784E-01  7.183356915021E-01
  7.269557198001E-01  7.356791884377E-01  7.445073386990E-01  7.534414267634E-01
  7.624827238845E-01  7.716325165711E-01  7.808921067700E-01  7.902628120512E-01
  7.997459657959E-01  8.093429173854E-01  8.190550323940E-01  8.288836927828E-01
  8.388302970962E-01  8.488962606613E-01  8.590830157892E-01  8.693920119787E-01
  8.798247161225E-01  8.903826127159E-01  9.010672040685E-01  9.118800105173E-01
  9.228225706435E-01  9.338964414913E-01  9.451031987892E-01  9.564444371746E-01
  9.679217704207E-01  9.795368316658E-01  9.912912736458E-01  1.003186768930E+00
  1.015225010157E+00  1.027407710279E+00  1.039736602802E+00  1.052213442036E+00
  1.064840003340E+00  1.077618083380E+00  1.090549500381E+00  1.103636094385E+00
  1.116879727518E+00  1.130282284248E+00  1.143845671659E+00  1.157571819719E+00
  1.171462681555E+00  1.185520233734E+00  1.199746476539E+00  1.214143434257E+00
  1.228713155469E+00  1.243457713334E+00  1.258379205894E+00  1.273479756365E+00
  1.288761513441E+00  1.304226651603E+00  1.319877371422E+00  1.335715899879E+00
  1.351744490677E+00  1.367965424566E+00  1.384381009660E+00  1.400993581776E+00
  1.417805504758E+00  1.434819170815E+00  1.452037000864E+00  1.469461444875E+00
  1.487094982213E+00  1.504940122000E+00  1.522999403464E+00  1.541275396305E+00
  1.559770701061E+00  1.578487949474E+00  1.597429804868E+00  1.616598962526E+00
  1.635998150076E+00  1.655630127877E+00  1.675497689412E+00  1.695603661685E+00
  1.715950905625E+00  1.736542316492E+00  1.757380824290E+00  1.778469394182E+00
  1.799811026912E+00  1.821408759235E+00  1.843265664346E+00  1.865384852318E+00
  1.887769470546E+00  1.910422704192E+00  1.933347776642E+00  1.956547949962E+00
  1.980026525362E+00  2.003786843666E+00  2.027832285790E+00  2.052166273220E+00
  2.076792268498E+00  2.101713775720E+00  2.126934341029E+00  2.152457553121E+00
  2.178287043759E+00  2.204426488284E+00  2.230879606143E+00  2.257650161417E+00
  2.284741963354E+00  2.312158866914E+00  2.339904773317E+00  2.367983630597E+00
  2.396399434164E+00  2.425156227374E+00  2.454258102102E+00  2.483709199328E+00
  2.513513709720E+00  2.543675874236E+00  2.574199984727E+00  2.605090384544E+00
  2.636351469158E+00  2.667987686788E+00  2.700003539030E+00  2.732403581498E+00
  2.765192424476E+00  2.798374733570E+00  2.831955230373E+00  2.865938693137E+00
  2.900329957455E+00  2.935133916944E+00  2.970355523947E+00  3.005999790235E+00
  3.042071787718E+00  3.078576649170E+00  3.115519568960E+00  3.152905803788E+00
  3.190740673433E+00  3.229029561514E+00  3.267777916253E+00  3.306991251248E+00
  3.346675146263E+00  3.386835248018E+00  3.427477270994E+00  3.468606998246E+00
  3.510230282225E+00  3.552353045612E+00  3.594981282159E+00  3.638121057545E+00
  3.681778510235E+00  3.725959852358E+00  3.770671370587E+00  3.815919427034E+00
  3.861710460158E+00  3.908050985680E+00  3.954947597508E+00  4.002406968678E+00
  4.050435852302E+00  4.099041082530E+00  4.148229575520E+00  4.198008330426E+00
  4.248384430392E+00  4.299365043556E+00  4.350957424079E+00  4.403168913168E+00
  4.456006940126E+00  4.509479023407E+00  4.563592771688E+00  4.618355884949E+00
  4.673776155568E+00  4.729861469435E+00  4.786619807068E+00  4.844059244753E+00
  4.902187955690E+00  4.961014211158E+00  5.020546381692E+00  5.080792938272E+00
  5.141762453532E+00  5.203463602974E+00  5.265905166210E+00  5.329096028204E+00
  5.393045180543E+00  5.457761722709E+00  5.523254863382E+00  5.589533921742E+00
  5.656608328803E+00  5.724487628749E+00  5.793181480294E+00  5.862699658057E+00
  5.933052053954E+00  6.004248678601E+00  6.076299662745E+00  6.149215258698E+00
  6.223005841802E+00  6.297681911904E+00  6.373254094846E+00  6.449733143985E+00
  6.527129941712E+00  6.605455501013E+00  6.684720967025E+00  6.764937618629E+00
  6.846116870053E+00  6.928270272494E+00  7.011409515764E+00  7.095546429953E+00
  7.180692987112E+00  7.266861302957E+00  7.354063638593E+00  7.442312402256E+00
  7.531620151083E+00  7.621999592896E+00  7.713463588011E+00  7.806025151067E+00
  7.899697452880E+00  7.994493822314E+00  8.090427748182E+00  8.187512881160E+00
  8.285763035734E+00  8.385192192163E+00  8.485814498469E+00  8.587644272451E+00
  8.690696003720E+00  8.794984355765E+00  8.900524168034E+00  9.007330458050E+00
  9.115418423547E+00  9.224803444629E+00  9.335501085965E+00  9.447527098997E+00
  9.560897424185E+00  9.675628193275E+00  9.791735731594E+00  9.909236560373E+00
  1.002814739910E+01  1.014848516789E+01  1.027026698990E+01  1.039351019378E+01
  1.051823231611E+01  1.064445110390E+01  1.077218451715E+01  1.090145073135E+01
  1.103226814013E+01  1.116465535781E+01  1.129863122210E+01  1.143421479677E+01
  1.157142537433E+01  1.171028247882E+01  1.185080586857E+01  1.199301553899E+01
  1.213693172546E+01  1.228257490616E+01  1.242996580504E+01  1.257912539470E+01
  1.273007489943E+01  1.288283579823E+01  1.303742982781E+01  1.319387898574E+01
  1.335220553357E+01  1.351243199997E+01  1.367458118397E+01  1.383867615818E+01
  1.400474027208E+01  1.417279715534E+01  1.434287072121E+01  1.451498516986E+01
  1.468916499190E+01  1.486543497180E+01  1.504382019146E+01  1.522434603376E+01
  1.540703818617E+01  1.559192264440E+01  1.577902571613E+01  1.596837402473E+01
  1.615999451302E+01  1.635391444718E+01  1.655016142055E+01  1.674876335759E+01
  1.694974851788E+01  1.715314550010E+01  1.735898324610E+01  1.756729104505E+01
  1.777809853759E+01  1.799143572004E+01  1.820733294868E+01  1.842582094407E+01
  1.864693079540E+01  1.887069396494E+01  1.909714229252E+01  1.932630800003E+01
  1.955822369603E+01  1.979292238038E+01  2.003043744895E+01  2.027080269834E+01
  2.051405233072E+01  2.076022095868E+01  2.100934361019E+01  2.126145573351E+01
  2.151659320231E+01  2.177479232074E+01  2.203608982859E+01  2.230052290653E+01
  2.256812918141E+01  2.283894673159E+01  2.311301409237E+01  2.339037026148E+01
  2.367105470461E+01  2.395510736107E+01  2.424256864940E+01  2.453347947319E+01
  2.482788122687E+01  2.512581580160E+01  2.542732559121E+01  2.573245349831E+01
  2.604124294029E+01  2.635373785557E+01  2.666998270984E+01  2.699002250236E+01
  2.731390277239E+01  2.764166960565E+01  2.797336964092E+01  2.830905007661E+01
  2.864875867753E+01  2.899254378166E+01  2.934045430704E+01  2.969253975873E+01
  3.004885023583E+01  3.040943643866E+01  3.077434967593E+01  3.114364187204E+01
  3.151736557450E+01  3.189557396140E+01  3.227832084893E+01  3.266566069912E+01
  3.305764862751E+01  3.345434041104E+01  3.385579249597E+01  3.426206200592E+01
  3.467320674999E+01  3.508928523099E+01  3.551035665377E+01  3.593648093361E+01
  3.636771870482E+01  3.680413132927E+01  3.724578090522E+01  3.769273027609E+01
  3.814504303940E+01  3.860278355587E+01  3.906601695854E+01  3.953480916205E+01
  4.000922687199E+01  4.048933759445E+01  4.097520964559E+01  4.146691216133E+01
  4.196451510727E+01  4.246808928856E+01  4.297770636002E+01  4.349343883634E+01
  4.401536010238E+01
</grid-data>
</grid>
<valence-charge total-charge="20" is-unscreening-charge="yes"
 rescaled-to-z-pseudo="no">
<radfunc>
<data npts="457">
  6.576897102646E-01  6.602225890957E-01  6.677977765690E-01  6.804476724039E-01
  6.990361232861E-01  7.228003611814E-01  7.531623174371E-01  7.880320144265E-01
  8.273697498657E-01  8.734176641147E-01  9.255451503877E-01  9.824717473220E-01
  1.051640926037E+00  1.124311018466E+00  1.197342580249E+00  1.282001192303E+00
  1.380195866899E+00  1.473968058546E+00  1.580185614120E+00  1.700561804999E+00
  1.837057197688E+00  1.959357156168E+00  2.094701067229E+00  2.244534922521E+00
  2.410470116006E+00  2.594301626614E+00  2.798027554455E+00  2.965205316957E+00
  3.145845421500E+00  3.341057618913E+00  3.552039632159E+00  3.780082135984E+00
  4.026573391150E+00  4.293003314554E+00  4.580966709953E+00  4.892165317150E+00
  5.228408259163E+00  5.591610376580E+00  5.849714118892E+00  6.121314763766E+00
  6.407050277896E+00  6.707573770733E+00  7.023551081801E+00  7.355657804527E+00
  7.704575673226E+00  8.070988234571E+00  8.455575719785E+00  8.859009029452E+00
  9.281942739295E+00  9.725007032950E+00  1.018879846714E+01  1.067386947600E+01
  1.118071652540E+01  1.170976683527E+01  1.226136359916E+01  1.283574964585E+01
  1.343304950919E+01  1.405324989930E+01  1.469617860302E+01  1.536148188318E+01
  1.604860049715E+01  1.675674451497E+01  1.748486718612E+01  1.823163818353E+01
  1.899541664110E+01  1.977422449841E+01  2.056572077025E+01  2.096539029396E+01
  2.136717746861E+01  2.177067728221E+01  2.217545801707E+01  2.258106077954E+01
  2.298699910862E+01  2.339275867267E+01  2.379779706363E+01  2.420154369863E+01
  2.460339983875E+01  2.500273873524E+01  2.539890591324E+01  2.579121960315E+01
  2.617897132980E+01  2.656142666921E+01  2.693782618259E+01  2.730738653664E+01
  2.766930181883E+01  2.802274505570E+01  2.836686994109E+01  2.870081278083E+01
  2.902369465868E+01  2.933462382763E+01  2.963269832891E+01  2.991700883957E+01
  3.018664174794E+01  3.044068245429E+01  3.067821889187E+01  3.089834526176E+01
  3.110016597222E+01  3.128279977132E+01  3.144538405860E+01  3.158707935960E+01
  3.170707394386E+01  3.180458856467E+01  3.187888129619E+01  3.192925244059E+01
  3.195504947572E+01  3.195567201066E+01  3.193057671467E+01  3.187928218223E+01
  3.180137369511E+01  3.169650784014E+01  3.156441694002E+01  3.140491325269E+01
  3.121789289395E+01  3.100333943729E+01  3.076132714420E+01  3.049202377858E+01
  3.019569295924E+01  2.987269600540E+01  2.952349323158E+01  2.914864465040E+01
  2.874881004431E+01  2.832474837051E+01  2.787731646721E+01  2.740746703393E+01
  2.691624586366E+01  2.640478831092E+01  2.587431498610E+01  2.532612667426E+01
  2.476159848456E+01  2.418217324553E+01  2.358935417102E+01  2.298469683189E+01
  2.236980047951E+01  2.174629877825E+01  2.111585001600E+01  2.048012687317E+01
  1.984080584269E+01  1.919955640435E+01  1.855803006786E+01  1.791784940844E+01
  1.728059722709E+01  1.664780597433E+01  1.602094758081E+01  1.540142383985E+01
  1.479055748684E+01  1.418958411559E+01  1.359964506519E+01  1.302178139916E+01
  1.245692908420E+01  1.190591545699E+01  1.136945704487E+01  1.084815878042E+01
  1.034251462011E+01  9.852909545591E+00  9.379622891424E+00  8.922832908088E+00
  8.482622433099E+00  8.058985508891E+00  7.651834754268E+00  7.261009640614E+00
  6.886286474578E+00  6.527389097807E+00  6.183997299223E+00  5.855759920234E+00
  5.542310117232E+00  5.243268384302E+00  4.958241818907E+00  4.686821173207E+00
  4.428582831879E+00  4.183093663136E+00  3.949913041668E+00  3.728595651790E+00
  3.518693886251E+00  3.319760058489E+00  3.131348410156E+00  2.953016922280E+00
  2.784328935637E+00  2.624854588837E+00  2.474172082332E+00  2.331868777166E+00
  2.197542137631E+00  2.070800527249E+00  1.951263867601E+00  1.838564169589E+00
  1.732345946660E+00  1.632266519395E+00  1.537996220700E+00  1.449218510581E+00
  1.365630009188E+00  1.286940456523E+00  1.212872606780E+00  1.143162064965E+00
  1.077557072993E+00  1.015818252046E+00  9.577183075543E-01  9.030417027317E-01
  8.515843061425E-01  8.031530183760E-01  7.575653824641E-01  7.146491822768E-01
  6.742420327306E-01  6.361909652630E-01  6.003520116618E-01  5.665897889896E-01
  5.347770880162E-01  5.047944672623E-01  4.765298544699E-01  4.498781570460E-01
  4.247408827768E-01  4.010257718819E-01  3.786464412697E-01  3.575220416618E-01
  3.375769280862E-01  3.187403440817E-01  3.009461198192E-01  2.841323842226E-01
  2.682412910669E-01  2.532187589354E-01  2.390142248379E-01  2.255804112252E-01
  2.128731060756E-01  2.008509556825E-01  1.894752697341E-01  1.787098382465E-01
  1.685207598875E-01  1.588762812147E-01  1.497466463388E-01  1.411039565206E-01
  1.329220392070E-01  1.251763260175E-01  1.178437391964E-01  1.109025860583E-01
  1.043324609624E-01  9.811415436923E-02  9.222956854395E-02  8.666163948964E-02
  8.139426470912E-02  7.641223641231E-02  7.170117980321E-02  6.724749609919E-02
  6.303830995239E-02  5.906142096133E-02  5.530525897764E-02  5.175884293020E-02
  4.841174290481E-02  4.525404523412E-02  4.227632036687E-02  3.946959330112E-02
  3.682531637901E-02  3.433534425501E-02  3.199191086140E-02  2.978760820705E-02
  2.771536685685E-02  2.576843794983E-02  2.394037662405E-02  2.222502672604E-02
  2.061650669110E-02  1.910919648975E-02  1.769772554293E-02  1.637696151650E-02
  1.514199991204E-02  1.398815437808E-02  1.291094767136E-02  1.190610320415E-02
  1.096953711840E-02  1.009735083322E-02  9.285824016348E-03  8.531407935083E-03
  7.830719146236E-03  7.180533488521E-03  6.577780344491E-03  6.019537142562E-03
  5.503024072839E-03  5.025598993431E-03  4.584752506728E-03  4.178103187682E-03
  3.803392948501E-03  3.458482526385E-03  3.141347082945E-03  2.850071905803E-03
  2.582848204578E-03  2.337968994963E-03  2.113825066023E-03  1.908901027064E-03
  1.721771431509E-03  1.551096976210E-03  1.395620775443E-03  1.254164709561E-03
  1.125625848862E-03  1.008972953757E-03  9.032430526705E-04  8.075380994370E-04
  7.210217121365E-04  6.429159954568E-04  5.724984487085E-04  5.090989616053E-04
  4.520968998473E-04  4.009182824113E-04  3.550330522797E-04  3.139524421210E-04
  2.772264361893E-04  2.444413294359E-04  2.152173845313E-04  1.892065871900E-04
  1.660904998724E-04  1.455782136199E-04  1.274043974603E-04  1.113274445095E-04
  9.712771358997E-05  8.460586490083E-05  7.358128799617E-05  6.389062007701E-05
  5.538635236492E-05  4.793552211460E-05  4.141848763302E-05  3.572778350849E-05
  3.076705311295E-05  2.645005532525E-05  2.269974233302E-05  1.944740530322E-05
  1.663188466831E-05  1.419884175321E-05  1.210008846729E-05  1.029297180497E-05
  8.739809934654E-06  7.407376709495E-06  6.266431501111E-06  5.291291338449E-06
  4.459442426385E-06  3.751188220629E-06  3.149331345549E-06  2.638886757998E-06
  2.206823681594E-06  1.841833960743E-06  1.534124610703E-06  1.275232467840E-06
  1.057858971899E-06  8.757232385407E-07  7.234317046790E-07  5.963627505209E-07
  4.905648200139E-07  4.026666750253E-07  3.297985276133E-07  2.695228988008E-07
  2.197741510808E-07  1.788057352682E-07  1.451442801689E-07  1.175497358171E-07
  9.498085775669E-08  7.656539109704E-08  6.157437896409E-08  4.940008066843E-08
  3.953704060640E-08  3.156589981856E-08  2.513958848860E-08  1.997157972552E-08
  1.582592299231E-08  1.250880979005E-08  9.861454942482E-09  7.754104314882E-09
  6.081004300902E-09  4.756190169927E-09  3.709969626792E-09  2.885994926920E-09
  2.238831809660E-09  1.731737617957E-09  1.335898998816E-09  1.027600080114E-09
  7.881692441646E-10  6.027613003630E-10  4.596076290286E-10  3.494059912696E-10
  2.648254800476E-10  2.001061015798E-10  1.507358882901E-10  1.131913350153E-10
  8.472939043736E-11  6.322128877819E-11  4.702022814161E-11  3.485634009332E-11
  2.575359253086E-11  1.896426140595E-11  1.391742825682E-11  1.017863719423E-11
  7.418400465676E-12  5.387696068905E-12  3.898971164122E-12  2.811465700271E-12
  2.019913912323E-12  1.445877402712E-12  1.031120953100E-12  7.325681548418E-13
  5.184743137766E-13  3.655337637598E-13  2.567017332379E-13  1.795605424901E-13
  1.250988514023E-13  8.680310991338E-14  5.998404954056E-14  4.127941512749E-14
  2.828831010519E-14  1.930342533947E-14  1.311576375217E-14  8.872832221877E-15
  5.976099328070E-15  4.007165646369E-15  2.674838404670E-15  1.777358776562E-15
  1.175563788129E-15  7.739034719815E-16  5.070754109026E-16  3.306578472607E-16
  2.145757845814E-16  1.385648065833E-16  8.903689014937E-17  5.692538601433E-17
  3.621052136034E-17  2.291552859560E-17  1.442661643085E-17  9.034652757584E-18
  5.627861008847E-18  3.486842969259E-18  2.148574506769E-18  1.316645882551E-18
  8.023415451798E-19  4.861744664096E-19  2.929126123152E-19  1.754555823923E-19
  1.044838753179E-19  6.185199625710E-20  3.639565733850E-20  2.128655903777E-20
  1.237341766200E-20  7.147761597861E-21  4.103118584723E-21  2.340392533058E-21
  1.326356943499E-21  7.467851642158E-22  0.000000000000E+00  0.000000000000E+00
  0.000000000000E+00  0.000000000000E+00  0.000000000000E+00  0.000000000000E+00
  0.000000000000E+00  0.000000000000E+00  0.000000000000E+00  0.000000000000E+00
  0.000000000000E+00  0.000000000000E+00  0.000000000000E+00  0.000000000000E+00
  0.000000000000E+00  0.000000000000E+00  0.000000000000E+00  0.000000000000E+00
  0.000000000000E+00
</data>
</radfunc>
</valence-charge>
<pseudocore-charge matching-radius="0.579533066253"
 number-of-continuous-derivatives="4">
<annotation model-charge-form="Teter function with specified parameters" />
<radfunc>
<data npts="290">
  1.987183836047E+02  1.986886400310E+02  1.985997407465E+02  1.984514737499E+02
  1.982340246046E+02  1.979567565004E+02  1.976036884969E+02  1.971998168625E+02
  1.967462439957E+02  1.962180247122E+02  1.956235581568E+02  1.949785277407E+02
  1.942005198023E+02  1.933897792527E+02  1.925817146932E+02  1.916532220822E+02
  1.905870481407E+02  1.895794035826E+02  1.884500748670E+02  1.871852158783E+02
  1.857696325259E+02  1.845175311014E+02  1.831491839036E+02  1.816547983929E+02
  1.800239666265E+02  1.782456729754E+02  1.763083148555E+02  1.747436188521E+02
  1.730773109937E+02  1.713039405188E+02  1.694179414819E+02  1.674136614749E+02
  1.652853966275E+02  1.630274336511E+02  1.606340997342E+02  1.580998211196E+02
  1.554191912011E+02  1.525870489678E+02  1.506123807335E+02  1.485668932967E+02
  1.464493607451E+02  1.442586736967E+02  1.419938562528E+02  1.396540840889E+02
  1.372387036770E+02  1.347472526171E+02  1.321794810364E+02  1.295353739943E+02
  1.268151748092E+02  1.240194091921E+02  1.211489100445E+02  1.182048427433E+02
  1.151887306954E+02  1.121024809062E+02  1.089484092587E+02  1.057292651541E+02
  1.024482551119E+02  9.910906487464E+01  9.571587950927E+01  9.227340094051E+01
  8.878686229776E+01  8.526203840624E+01  8.170525170544E+01  7.812337283792E+01
  7.452381512084E+01  7.091452209484E+01  6.730394734255E+01  6.550095365199E+01
  6.370102578740E+01  6.190534959636E+01  6.011513572499E+01  5.833161787786E+01
  5.655605090937E+01  5.478970874345E+01  5.303388211899E+01  5.128987615949E+01
  4.955900776599E+01  4.784260283340E+01  4.614199329161E+01  4.445851397343E+01
  4.279349931312E+01  4.114827988031E+01  3.952417875555E+01  3.792250775534E+01
  3.634456351588E+01  3.479162344663E+01  3.326494156633E+01  3.176574423588E+01
  3.029522580453E+01  2.885454418740E+01  2.744481639434E+01  2.606711403210E+01
  2.472245880348E+01  2.341181802901E+01  2.213610021859E+01  2.089615072195E+01
  1.969274748850E+01  1.852659696869E+01  1.739833018980E+01  1.630849904073E+01
  1.525757280056E+01  1.424593494658E+01  1.327388027756E+01  1.234161238789E+01
  1.144924152770E+01  1.059678288329E+01  9.784155310695E+00  9.011180553405E+00
  8.277582973130E+00  7.582989819429E+00  6.926932060877E+00  6.308845796476E+00
  5.728074261661E+00  5.183870438304E+00  4.675400272738E+00  4.201746499889E+00
  3.761913065329E+00  3.354830130319E+00  2.979359637950E+00  2.634301411179E+00
  2.318399746234E+00  2.030350457368E+00  1.768808321620E+00  1.532394865067E+00
  1.319706425229E+00  1.129322417939E+00  9.598137313055E-01  8.097511644446E-01
  6.777138246784E-01  5.622973940097E-01  4.621221740058E-01  3.758408179199E-01
  3.021456600501E-01  2.397755550679E-01  1.875221444147E-01  1.442354728977E-01
  1.088288863110E-01  8.028315022813E-02  5.764974096324E-02  4.005327196485E-02
  2.669303238978E-02  1.684362909855E-02  9.854738532403E-03  5.149990568231E-03
  2.225022145839E-03  6.447538401952E-04  3.995720445617E-05  1.031942219908E-04
  5.842221638231E-04  1.284967154020E-03  2.054177433310E-03  2.781872361459E-03
  3.393705355713E-03  3.845358048438E-03  4.117078876705E-03  4.208472108479E-03
  4.133633095126E-03  3.916712565245E-03  3.587977404103E-03  3.180418070203E-03
  2.726934159081E-03  2.258110289352E-03  1.800575171042E-03  1.375918165275E-03
  1.000120598796E-03  6.834442596730E-04  4.307074990103E-04  2.418707128183E-04
  1.128480472885E-04  3.646115437042E-05  3.453722381365E-06  3.492112316710E-06
  2.608733372695E-05  6.138619298411E-05  1.007939767676E-04  1.374066072410E-04
  1.662458644137E-04  1.843060471482E-04  1.904334242658E-04  1.850702199978E-04
  1.699020754562E-04  1.474515559404E-04  1.206602286655E-04  9.249829828621E-05
  6.563421767871E-05  4.218779374228E-05  2.357997711036E-05  1.048176841702E-05
  2.854522001597E-06  6.533460410522E-08  1.054954680667E-06  4.532267499853E-06
  9.169120487173E-06  1.377193164425E-05  1.741172123205E-05  1.950119221985E-05
  1.981533006868E-05  1.845968335958E-05  1.579705069304E-05  1.234793044199E-05
  8.682258316391E-06  5.319483554675E-06  2.651116081747E-06  8.950638396843E-07
  8.519286018191E-08  0.000000000000E+00  0.000000000000E+00  0.000000000000E+00
  0.000000000000E+00  0.000000000000E+00  0.000000000000E+00  0.000000000000E+00
  0.000000000000E+00  0.000000000000E+00  0.000000000000E+00  0.000000000000E+00
  0.000000000000E+00  0.000000000000E+00  0.000000000000E+00  0.000000000000E+00
  0.000000000000E+00  0.000000000000E+00  0.000000000000E+00  0.000000000000E+00
  0.000000000000E+00  0.000000000000E+00  0.000000000000E+00  0.000000000000E+00
  0.000000000000E+00  0.000000000000E+00  0.000000000000E+00  0.000000000000E+00
  0.000000000000E+00  0.000000000000E+00  0.000000000000E+00  0.000000000000E+00
  0.000000000000E+00  0.000000000000E+00  0.000000000000E+00  0.000000000000E+00
  0.000000000000E+00  0.000000000000E+00  0.000000000000E+00  0.000000000000E+00
  0.000000000000E+00  0.000000000000E+00  0.000000000000E+00  0.000000000000E+00
  0.000000000000E+00  0.000000000000E+00  0.000000000000E+00  0.000000000000E+00
  0.000000000000E+00  0.000000000000E+00  0.000000000000E+00  0.000000000000E+00
  0.000000000000E+00  0.000000000000E+00  0.000000000000E+00  0.000000000000E+00
  0.000000000000E+00  0.000000000000E+00  0.000000000000E+00  0.000000000000E+00
  0.000000000000E+00  0.000000000000E+00  0.000000000000E+00  0.000000000000E+00
  0.000000000000E+00  0.000000000000E+00  0.000000000000E+00  0.000000000000E+00
  0.000000000000E+00  0.000000000000E+00  0.000000000000E+00  0.000000000000E+00
  0.000000000000E+00  0.000000000000E+00  0.000000000000E+00  0.000000000000E+00
  0.000000000000E+00  0.000000000000E+00  0.000000000000E+00  0.000000000000E+00
  0.000000000000E+00  0.000000000000E+00  0.000000000000E+00  0.000000000000E+00
  0.000000000000E+00  0.000000000000E+00
</data>
</radfunc>
</pseudocore-charge>
<semilocal-potentials set="scalar_relativistic">
<slps n="4" l="s" rc="1.25837920589" eref="-3.88972206215">
<radfunc>
<data npts="290">
  2.509655045988E+01  2.506881784068E+01  2.498605420406E+01  2.484843693921E+01
  2.464754354813E+01  2.439298826831E+01  2.407141480066E+01  2.370705723882E+01
  2.330223105804E+01  2.283650786976E+01  2.231960249712E+01  2.176720111095E+01
  2.111236177109E+01  2.044292890289E+01  1.978848989277E+01  1.905180488536E+01
  1.822538816528E+01  1.746284763101E+01  1.662882289626E+01  1.571957693333E+01
  1.473184034538E+01  1.388333952116E+01  1.298191426160E+01  1.202696848851E+01
  1.101835670949E+01  9.956441971938E+00  8.842149526310E+00  7.972956281157E+00
  7.076034926615E+00  6.152481345733E+00  5.203606714842E+00  4.230938752112E+00
  3.236219977972E+00  2.221402818130E+00  1.188641459204E+00  1.402804573408E-01
 -9.211598014007E-01 -1.993000587478E+00 -2.711953124620E+00 -3.433414301084E+00
 -4.156500123351E+00 -4.880310108416E+00 -5.603930644977E+00 -6.326438405168E+00
 -7.046903768687E+00 -7.764394220455E+00 -8.477977682821E+00 -9.186725743914E+00
 -9.889716744913E+00 -1.058603869080E+01 -1.127479195161E+01 -1.195509172397E+01
 -1.262607022644E+01 -1.328687860569E+01 -1.393668853496E+01 -1.457469349085E+01
 -1.520010969915E+01 -1.581217674535E+01 -1.641015785081E+01 -1.699333982058E+01
 -1.756103267400E+01 -1.811256897494E+01 -1.864730288310E+01 -1.916460895377E+01
 -1.966388071800E+01 -2.014452908064E+01 -2.060598057870E+01 -2.082933212046E+01
 -2.104767554726E+01 -2.126094274925E+01 -2.146906624507E+01 -2.167197912510E+01
 -2.186961499642E+01 -2.206190792991E+01 -2.224879241014E+01 -2.243020328847E+01
 -2.260607574000E+01 -2.277634522483E+01 -2.294094745426E+01 -2.309981836241E+01
 -2.325289408388E+01 -2.340011093802E+01 -2.354140542024E+01 -2.367671420105E+01
 -2.380597413319E+01 -2.392912226757E+01 -2.404609587826E+01 -2.415683249723E+01
 -2.426126995908E+01 -2.435934645635E+01 -2.445100060569E+01 -2.453617152521E+01
 -2.461479892344E+01 -2.468682320009E+01 -2.475218555886E+01 -2.481082813253E+01
 -2.486269412053E+01 -2.490772793905E+01 -2.494587538384E+01 -2.497708380585E+01
 -2.500130229964E+01 -2.501848190469E+01 -2.502857581962E+01 -2.503153962936E+01
 -2.502733154518E+01 -2.501591265779E+01 -2.499724720334E+01 -2.497130284248E+01
 -2.493805095250E+01 -2.489746693259E+01 -2.484953052237E+01 -2.479422613378E+01
 -2.473154319647E+01 -2.466147651690E+01 -2.458402665135E+01 -2.449920029304E+01
 -2.440701067384E+01 -2.430747798063E+01 -2.420062978710E+01 -2.408650150119E+01
 -2.396513682901E+01 -2.383658825596E+01 -2.370091754608E+01 -2.355819626070E+01
 -2.340850629824E+01 -2.325194045684E+01 -2.308860302241E+01 -2.291861038517E+01
 -2.274209168847E+01 -2.255918951469E+01 -2.237006061403E+01 -2.217487668333E+01
 -2.197382520351E+01 -2.176711034603E+01 -2.155495396060E+01 -2.133759665854E+01
 -2.111529900869E+01 -2.088834286501E+01 -2.065703284768E+01 -2.042169800216E+01
 -2.018269366258E+01 -1.994040354821E+01 -1.969524212248E+01 -1.944765724434E+01
 -1.919813314039E+01 -1.894719372244E+01 -1.869540626918E+01 -1.844338548066E+01
 -1.819179790035E+01 -1.794136668014E+01 -1.769287663794E+01 -1.744717952538E+01
 -1.720519938256E+01 -1.696793780862E+01 -1.673647892104E+01 -1.651199371289E+01