<?xml version="1.0" encoding="UTF-8" ?>
<psml version="1.1" energy_unit="hartree" length_unit="bohr"
 uuid="443ddf50-23d2-11e8-437a-46feb8ffc2cd"
 xmlns="http://esl.cecam.org/PSML/ns/1.1">
<provenance creator="ONCVPSP-3.3.0+psml-3.3.0-73 (scalar-relativistic)"
 date="2018-03-09">
<annotation action="semilocal-pseudopotential-generation"
 action-cont="projectors-generation" />
<input-file name="oncvpsp-input">
<![CDATA[# atsym z nc nv iexc psfile
Cl 17 3 2 -001012 upf
# n l f
1 0 2.0
2 0 2.0
2 1 6.0
3 0 2.0
3 1 5.0
# lmax
2
# l rc ep ncon nbas qcut
0 1.55 0.0 4 9 6.8
1 1.35 0.0 4 8 8.0
2 1.75 0.1 4 9 6.8
# lloc lpopt rc5 dvloc0
4 5 1.3 0.0
# l nproj debl
0 2 2.0
1 2 2.0
2 2 1.5
# icmod fcfact rcfact
3 8.0 1.23
# epsh1 epsh2 depsh
-15.0 12.0 0.02
# rlmax drl
6.0 0.01
 0
]]>
</input-file>
</provenance>
<pseudo-atom-spec atomic-label="Cl" atomic-number="17" z-pseudo="7"
 flavor="Hamann&apos;s oncvpsp" relativity="scalar" spin-dft="no"
 core-corrections="yes">
<annotation pseudo-energy="-15.0032449672" />
<exchange-correlation>
<annotation oncvpsp-xc-code="-1012" oncvpsp-xc-type="libxc-interface" />
<libxc-info number-of-functionals="2">
<functional name="Slater exchange (LDA)" type="exchange" id="1" />
<functional name="Perdew &amp; Wang (LDA)" type="correlation" id="12" />
</libxc-info>
</exchange-correlation>
<valence-configuration total-valence-charge="7">
<shell n="3" l="s" occupation="2" />
<shell n="3" l="p" occupation="5" />
</valence-configuration>
</pseudo-atom-spec>
<grid npts="457">
<annotation type="sampled from oncvpsp log grid"
 recipe="r(i:1..N) = r1*exp(a*(i-1)) + r=0; resampled"
 recipe-cont="r1: scale; a: step" scale="0.294117647059E-04"
 step="0.119285708653E-01" delta="0.500000000000E-02" rmax="44.0242521724" />
<grid-data>
  0.000000000000E+00  5.027151483922E-03  1.004134057245E-02  1.506361205528E-02
  2.029747125469E-02  2.546077814243E-02  3.081483684808E-02  3.598375947907E-02
  4.102911721421E-02  4.622716901962E-02  5.146617712438E-02  5.661949745917E-02
  6.228882096259E-02  6.771325607946E-02  7.273723248327E-02  7.813396217599E-02
  8.393110154036E-02  8.908928747130E-02  9.456448201537E-02  1.003761676926E-01
  1.065450243678E-01  1.117519790870E-01  1.172134025401E-01  1.229417308514E-01
  1.289500079103E-01  1.352519150732E-01  1.418618023172E-01  1.470303566364E-01
  1.523872206578E-01  1.579392552059E-01  1.636935710706E-01  1.696575381144E-01
  1.758387947112E-01  1.822452575295E-01  1.888851316716E-01  1.957669211822E-01
  2.028994399400E-01  2.102918229461E-01  2.153691087193E-01  2.205689804802E-01
  2.258943979449E-01  2.313483922889E-01  2.369340678723E-01  2.426546040070E-01
  2.485132567662E-01  2.545133608375E-01  2.606583314216E-01  2.669516661754E-01
  2.733969472036E-01  2.799978430969E-01  2.867581110206E-01  2.936815988531E-01
  3.007722473758E-01  3.080340925164E-01  3.154712676462E-01  3.230880059322E-01
  3.308886427474E-01  3.388776181379E-01  3.470594793502E-01  3.554388834197E-01
  3.640205998210E-01  3.728095131830E-01  3.818106260693E-01  3.910290618251E-01
  4.004700674939E-01  4.101390168034E-01  4.200414132251E-01  4.250819101838E-01
  4.301828931060E-01  4.353450878233E-01  4.405692288772E-01  4.458560596237E-01
  4.512063323392E-01  4.566208083273E-01  4.621002580272E-01  4.676454611235E-01
  4.732572066570E-01  4.789362931369E-01  4.846835286545E-01  4.904997309984E-01
  4.963857277704E-01  5.023423565036E-01  5.083704647817E-01  5.144709103590E-01
  5.206445612833E-01  5.268922960187E-01  5.332150035710E-01  5.396135836138E-01
  5.460889466172E-01  5.526420139766E-01  5.592737181443E-01  5.659850027620E-01
  5.727768227952E-01  5.796501446687E-01  5.866059464048E-01  5.936452177616E-01
  6.007689603747E-01  6.079781878992E-01  6.152739261540E-01  6.226572132679E-01
  6.301290998271E-01  6.376906490250E-01  6.453429368133E-01  6.530870520551E-01
  6.609240966797E-01  6.688551858399E-01  6.768814480700E-01  6.850040254468E-01
  6.932240737522E-01  7.015427626372E-01  7.099612757889E-01  7.184808110983E-01
  7.271025808315E-01  7.358278118015E-01  7.446577455431E-01  7.535936384896E-01
  7.626367621515E-01  7.717884032973E-01  7.810498641369E-01  7.904224625065E-01
  7.999075320566E-01  8.095064224413E-01  8.192204995106E-01  8.290511455047E-01
  8.389997592508E-01  8.490677563618E-01  8.592565694381E-01  8.695676482714E-01
  8.800024600506E-01  8.905624895712E-01  9.012492394461E-01  9.120642303194E-01
  9.230090010833E-01  9.340851090963E-01  9.452941304054E-01  9.566376599703E-01
  9.681173118899E-01  9.797347196326E-01  9.914915362682E-01  1.003389434703E+00
  1.015430107920E+00  1.027615269215E+00  1.039946652445E+00  1.052426012275E+00
  1.065055124422E+00  1.077835785915E+00  1.090769815346E+00  1.103859053130E+00
  1.117105361768E+00  1.130510626109E+00  1.144076753622E+00  1.157805674666E+00
  1.171699342762E+00  1.185759734875E+00  1.199988851694E+00  1.214388717914E+00
  1.228961382529E+00  1.243708919119E+00  1.258633426149E+00  1.273737027262E+00
  1.289021871590E+00  1.304490134049E+00  1.320144015657E+00  1.335985743845E+00
  1.352017572771E+00  1.368241783644E+00  1.384660685048E+00  1.401276613269E+00
  1.418091932628E+00  1.435109035820E+00  1.452330344249E+00  1.469758308380E+00
  1.487395408081E+00  1.505244152978E+00  1.523307082814E+00  1.541586767807E+00
  1.560085809021E+00  1.578806838729E+00  1.597752520794E+00  1.616925551044E+00
  1.636328657656E+00  1.655964601548E+00  1.675836176767E+00  1.695946210888E+00
  1.716297565418E+00  1.736893136203E+00  1.757735853838E+00  1.778828684084E+00
  1.800174628293E+00  1.821776723832E+00  1.843638044518E+00  1.865761701053E+00
  1.888150841465E+00  1.910808651563E+00  1.933738355382E+00  1.956943215646E+00
  1.980426534234E+00  2.004191652645E+00  2.028241952477E+00  2.052580855906E+00
  2.077211826177E+00  2.102138368091E+00  2.127364028508E+00  2.152892396850E+00
  2.178727105613E+00  2.204871830880E+00  2.231330292851E+00  2.258106256365E+00
  2.285203531441E+00  2.312625973818E+00  2.340377485504E+00  2.368462015330E+00
  2.396883559514E+00  2.425646162228E+00  2.454753916175E+00  2.484210963169E+00
  2.514021494727E+00  2.544189752664E+00  2.574720029696E+00  2.605616670052E+00
  2.636884070093E+00  2.668526678934E+00  2.700548999081E+00  2.732955587070E+00
  2.765751054115E+00  2.798940066765E+00  2.832527347566E+00  2.866517675736E+00
  2.900915887845E+00  2.935726878499E+00  2.970955601041E+00  3.006607068254E+00
  3.042686353073E+00  3.079198589310E+00  3.116148972382E+00  3.153542760050E+00
  3.191385273171E+00  3.229681896449E+00  3.268438079206E+00  3.307659336157E+00
  3.347351248191E+00  3.387519463169E+00  3.428169696727E+00  3.469307733088E+00
  3.510939425885E+00  3.553070698995E+00  3.595707547383E+00  3.638856037952E+00
  3.682522310407E+00  3.726712578132E+00  3.771433129070E+00  3.816690326619E+00
  3.862490610538E+00  3.908840497864E+00  3.955746583839E+00  4.003215542845E+00
  4.051254129359E+00  4.099869178911E+00  4.149067609058E+00  4.198856420367E+00
  4.249242697411E+00  4.300233609780E+00  4.351836413098E+00  4.404058450055E+00
  4.456907151455E+00  4.510390037273E+00  4.564514717720E+00  4.619288894333E+00
  4.674720361065E+00  4.730817005398E+00  4.787586809462E+00  4.845037851176E+00
  4.903178305390E+00  4.962016445055E+00  5.021560642395E+00  5.081819370104E+00
  5.142801202545E+00  5.204514816976E+00  5.266968994780E+00  5.330172622717E+00
  5.394134694190E+00  5.458864310520E+00  5.524370682246E+00  5.590663130433E+00
  5.657751087998E+00  5.725644101054E+00  5.794351830267E+00  5.863884052230E+00
  5.934250660857E+00  6.005461668787E+00  6.077527208813E+00  6.150457535318E+00
  6.224263025742E+00  6.298954182051E+00  6.374541632236E+00  6.451036131823E+00
  6.528448565404E+00  6.606789948189E+00  6.686071427568E+00  6.766304284698E+00
  6.847499936115E+00  6.929669935348E+00  7.012825974572E+00  7.096979886267E+00
  7.182143644902E+00  7.268329368641E+00  7.355549321065E+00  7.443815912918E+00
  7.533141703873E+00  7.623539404319E+00  7.715021877171E+00  7.807602139697E+00
  7.901293365373E+00  7.996108885758E+00  8.092062192387E+00  8.189166938696E+00
  8.287436941960E+00  8.386886185263E+00  8.487528819487E+00  8.589379165320E+00
  8.692451715304E+00  8.796761135888E+00  8.902322269519E+00  9.009150136753E+00
  9.117259938394E+00  9.226667057655E+00  9.337387062346E+00  9.449435707095E+00
  9.562828935580E+00  9.677582882807E+00  9.793713877400E+00  9.911238443929E+00
  1.003017330526E+01  1.015053538492E+01  1.027234180954E+01  1.039560991125E+01
  1.052035723019E+01  1.064660151695E+01  1.077436073515E+01  1.090365306398E+01
  1.103449690074E+01  1.116691086355E+01  1.130091379391E+01  1.143652475944E+01
  1.157376305655E+01  1.171264821323E+01  1.185319999179E+01  1.199543839169E+01
  1.213938365239E+01  1.228505625622E+01  1.243247693130E+01  1.258166665447E+01
  1.273264665433E+01  1.288543841418E+01  1.304006367515E+01  1.319654443925E+01
  1.335490297252E+01  1.351516180819E+01  1.367734374989E+01  1.384147187489E+01
  1.400756953739E+01  1.417566037184E+01  1.434576829630E+01  1.451791751585E+01
  1.469213252604E+01  1.486843811636E+01  1.504685937375E+01  1.522742168624E+01
  1.541015074647E+01  1.559507255543E+01  1.578221342610E+01  1.597159998721E+01
  1.616325918706E+01  1.635721829730E+01  1.655350491687E+01  1.675214697587E+01
  1.695317273958E+01  1.715661081246E+01  1.736249014220E+01  1.757084002391E+01
  1.778169010420E+01  1.799507038545E+01  1.821101123007E+01  1.842954336484E+01
  1.865069788521E+01  1.887450625984E+01  1.910100033495E+01  1.933021233897E+01
  1.956217488704E+01  1.979692098569E+01  2.003448403751E+01  2.027489784596E+01
  2.051819662012E+01  2.076441497956E+01  2.101358795931E+01  2.126575101482E+01
  2.152094002700E+01  2.177919130732E+01  2.204054160301E+01  2.230502810225E+01
  2.257268843948E+01  2.284356070075E+01  2.311768342916E+01  2.339509563031E+01
  2.367583677787E+01  2.395994681921E+01  2.424746618104E+01  2.453843577521E+01
  2.483289700451E+01  2.513089176857E+01  2.543246246979E+01  2.573765201943E+01
  2.604650384366E+01  2.635906188978E+01  2.667537063246E+01  2.699547508005E+01
  2.731942078101E+01  2.764725383038E+01  2.797902087635E+01  2.831476912686E+01
  2.865454635639E+01  2.899840091266E+01  2.934638172361E+01  2.969853830430E+01
  3.005492076395E+01  3.041557981312E+01  3.078056677087E+01  3.114993357213E+01
  3.152373277499E+01  3.190201756829E+01  3.228484177911E+01  3.267225988046E+01
  3.306432699902E+01  3.346109892301E+01  3.386263211009E+01  3.426898369541E+01
  3.468021149976E+01  3.509637403775E+01  3.551753052621E+01  3.594374089252E+01
  3.637506578323E+01  3.681156657263E+01  3.725330537150E+01  3.770034503596E+01
  3.815274917639E+01  3.861058216651E+01  3.907390915250E+01  3.954279606233E+01
  4.001730961508E+01  4.049751733046E+01  4.098348753843E+01  4.147528938889E+01
  4.197299286156E+01  4.247666877590E+01  4.298638880121E+01  4.350222546682E+01
  4.402425217242E+01
</grid-data>
</grid>
<valence-charge total-charge="7" is-unscreening-charge="yes"
 rescaled-to-z-pseudo="no">
<radfunc>
<data npts="457">
  6.470225784342E-02  6.484233053760E-02  6.526114142049E-02  6.596015128294E-02
  6.698648544495E-02  6.829716692308E-02  6.996943095221E-02  7.188682016036E-02
  7.404591037432E-02  7.656801842096E-02  7.941637473733E-02  8.251896399959E-02
  8.627782481031E-02  9.021432035206E-02  9.415774707340E-02  9.871360507526E-02
  1.039779014805E-01  1.089857785753E-01  1.146363685804E-01  1.210131704559E-01
  1.282107564308E-01  1.346313325241E-01  1.417068820820E-01  1.495052555398E-01
  1.581014870609E-01  1.675785684343E-01  1.780283035086E-01  1.865646064504E-01
  1.957517071826E-01  2.056400570203E-01  2.162840665007E-01  2.277424065472E-01
  2.400783276259E-01  2.533599964506E-01  2.676608492828E-01  2.830599602167E-01
  2.996424220111E-01  3.174997359888E-01  3.301611165841E-01  3.434635285404E-01
  3.574393317591E-01  3.721224075649E-01  3.875482058103E-01  4.037537889951E-01
  4.207778724573E-01  4.386608595419E-01  4.574448704909E-01  4.771737636120E-01
  4.978931470815E-01  5.196503795082E-01  5.424945571353E-01  5.664764852823E-01
  5.916486313289E-01  6.180650562108E-01  6.457813210444E-01  6.748543651094E-01
  7.053423510065E-01  7.373044723686E-01  7.708007190358E-01  8.058915941244E-01
  8.426377769140E-01  8.810997249709E-01  9.213372084182E-01  9.634087687749E-01
  1.007371094329E+00  1.053278303618E+00  1.101181128276E+00  1.125895598236E+00
  1.151125986346E+00  1.176877249414E+00  1.203153937120E+00  1.229960152262E+00
  1.257299508836E+00  1.285175087882E+00  1.313589391047E+00  1.342544291827E+00
  1.372040984438E+00  1.402079930316E+00  1.432660802195E+00  1.463782425793E+00
  1.495442719081E+00  1.527638629192E+00  1.560366066990E+00  1.593619839366E+00
  1.627393579351E+00  1.661679674146E+00  1.696469191207E+00  1.731751802554E+00
  1.767515707485E+00  1.803747553948E+00  1.840432358817E+00  1.877553427405E+00
  1.915092272540E+00  1.953028533625E+00  1.991339896123E+00  2.030002011953E+00
  2.068988421368E+00  2.108270476899E+00  2.147817270047E+00  2.187595561422E+00
  2.227569715120E+00  2.267701638151E+00  2.307950725818E+00  2.348273813972E+00
  2.388625139131E+00  2.428956307488E+00  2.469216273871E+00  2.509351331743E+00
  2.549305115363E+00  2.589018615212E+00  2.628430207808E+00  2.667475701011E+00
  2.706088395868E+00  2.744199166021E+00  2.781736555616E+00  2.818626896564E+00
  2.854794445900E+00  2.890161543854E+00  2.924648793082E+00  2.958175259364E+00
  2.990658693838E+00  3.022015776679E+00  3.052162381849E+00  3.081013862357E+00
  3.108485355178E+00  3.134492104729E+00  3.158949803574E+00  3.181774948729E+00
  3.202885211739E+00  3.222199820451E+00  3.239639950217E+00  3.255129122092E+00
  3.268593605456E+00  3.279962822408E+00  3.289169751219E+00  3.296151326166E+00
  3.300848831103E+00  3.303208284241E+00  3.303180811774E+00  3.300723008177E+00
  3.295797281233E+00  3.288372180110E+00  3.278422705041E+00  3.265930597454E+00
  3.250884609566E+00  3.233280752678E+00  3.213122523471E+00  3.190421107647E+00
  3.165195560137E+00  3.137472960923E+00  3.107288545143E+00  3.074685805716E+00
  3.039716566119E+00  3.002441020262E+00  2.962927735669E+00  2.921253615380E+00
  2.877503813233E+00  2.831771596528E+00  2.784158149603E+00  2.734772311564E+00
  2.683730241537E+00  2.631155005272E+00  2.577176077897E+00  2.521928759110E+00
  2.465553499141E+00  2.408194853245E+00  2.349999173597E+00  2.291111607530E+00
  2.231674908228E+00  2.171829061919E+00  2.111710303298E+00  2.051450400619E+00
  1.991175952191E+00  1.931007754472E+00  1.871060254539E+00  1.811441102350E+00
  1.752250816134E+00  1.693582706805E+00  1.635523485056E+00  1.578154255605E+00
  1.521550692038E+00  1.465782851121E+00  1.410915297635E+00  1.357007144567E+00
  1.304112130038E+00  1.252278710844E+00  1.201550172815E+00  1.151964756544E+00
  1.103555796999E+00  1.056351875564E+00  1.010376983049E+00  9.656506922364E-01
  9.221883385725E-01  8.800012076213E-01  8.390967279992E-01  7.994786684186E-01
  7.611473378141E-01  7.240997872188E-01  6.883300123899E-01  6.538291561480E-01
  6.205857094772E-01  5.885857105059E-01  5.578129405592E-01  5.282491165467E-01
  4.998740790198E-01  4.726659753051E-01  4.466014371880E-01  4.216557527020E-01
  3.978030315726E-01  3.750163641079E-01  3.532679731460E-01  3.325293589098E-01
  3.127714366034E-01  2.939646666417E-01  2.760791774581E-01  2.590848808776E-01
  2.429515800804E-01  2.276490702245E-01  2.131472318228E-01  1.994161170055E-01
  1.864260288240E-01  1.741475937750E-01  1.625518277473E-01  1.516101956084E-01
  1.412946646647E-01  1.315777522421E-01  1.224325676405E-01  1.138328487272E-01
  1.057529934359E-01  9.816808644269E-02  9.105392129257E-02  8.438701824791E-02
  7.814463812951E-02  7.230479241736E-02  6.684624987388E-02  6.174853994666E-02
  5.699195320125E-02  5.255753902748E-02  4.842710085463E-02  4.458318910217E-02
  4.100909208413E-02  3.768882507536E-02  3.460711773881E-02  3.174940010271E-02
  2.910178726715E-02  2.665106300913E-02  2.438466244570E-02  2.229065390479E-02
  2.035772014376E-02  1.857513904620E-02  1.693276391824E-02  1.542100349678E-02
  1.403080177305E-02  1.275361772680E-02  1.158140505806E-02  1.050659199582E-02
  9.522061255371E-03  8.621130209150E-03  7.797531329024E-03  7.045392951698E-03
  6.359220412804E-03  5.733877589595E-03  5.164568886824E-03  4.646821695362E-03
  4.176469348458E-03  3.749634596171E-03  3.362713614480E-03  3.012360561814E-03
  2.695472692298E-03  2.409176031839E-03  2.150811620256E-03  1.917922320003E-03
  1.708240189619E-03  1.519674417852E-03  1.350299812445E-03  1.198345835789E-03
  1.062186178112E-03  9.403288574726E-04  8.314068346122E-04  7.341691296968E-04
  6.474724270573E-04  5.702731533043E-04  5.016200135633E-04  4.406469700815E-04
  3.865666470736E-04  3.386641453992E-04  2.962912504814E-04  2.588610167888E-04
  2.258427121943E-04  1.967571055925E-04  1.711720812929E-04  1.486985639022E-04
  1.289867376652E-04  1.117225445326E-04  9.662444557268E-05  8.344043072796E-05
  7.194526233531E-05  6.193793827604E-05  5.323936109169E-05  4.569019989181E-05
  3.914893238564E-05  3.349005488657E-05  2.860244866346E-05  2.438789154301E-05
  2.075970419864E-05  1.764152109166E-05  1.496617655705E-05  1.267469704585E-05
  1.071539104812E-05  9.043028721472E-06  7.618103739217E-06  6.406170347775E-06
  5.377249083388E-06  4.505295042786E-06  3.767723029968E-06  3.144984311222E-06
  2.620190102187E-06  2.178777283928E-06  1.808212199264E-06  1.497728716010E-06
  1.238097060333E-06  1.021420221230E-06  8.409550065610E-07  6.909550924059E-07
  5.665336512331E-07  4.635433710231E-07  3.784718876386E-07  3.083508470283E-07
  2.506769929722E-07  2.033438407446E-07  1.645826480043E-07  1.329115321969E-07
  1.070917095007E-07  8.608994464537E-08  6.904640451593E-08  5.524720206979E-08
  4.410100145542E-08  3.511913103160E-08  2.789871891563E-08  2.210842638500E-08
  1.747640853495E-08  1.378017963741E-08  1.083810320696E-08  8.502264372808E-09
  6.652515266698E-09  5.191513215146E-09  4.040596986267E-09  3.136368572535E-09
  2.427867342888E-09  1.874240194427E-09  1.442825869238E-09  1.107584142755E-09
  8.478113775162E-10  6.470931873978E-10  4.924528669533E-10  3.736609822504E-10
  2.826772482427E-10  2.132006703662E-10  1.603080257759E-10  1.201642089795E-10
  8.979086092626E-11  6.688212140337E-11  4.965836280234E-11  3.675044039732E-11
  2.710838331602E-11  1.992959702600E-11  1.460259154010E-11  1.066302307152E-11
  7.759468960554E-12  5.626870433274E-12  4.065995467444E-12  2.927611830545E-12
  2.100332543208E-12  1.501314562981E-12  1.069166316799E-12  7.585590659677E-13
  5.361477538579E-13  3.774945419670E-13  2.647572495098E-13  1.849590961557E-13
  1.286985277909E-13  8.919092359251E-14  6.155960596974E-14  4.231338012668E-14
  2.896307654248E-14  1.974125902764E-14  1.339818343061E-14  9.053899140790E-15
  6.091457178655E-15  4.080181775823E-15  2.720741311928E-15  1.806012413552E-15
  1.193317216523E-15  7.848168572199E-16  5.137277758331E-16  3.346759951228E-16
  2.169784455515E-16  1.399851459048E-16  8.986522398937E-17  0.000000000000E+00
  0.000000000000E+00  0.000000000000E+00  0.000000000000E+00  0.000000000000E+00
  0.000000000000E+00  0.000000000000E+00  0.000000000000E+00  0.000000000000E+00
  0.000000000000E+00  0.000000000000E+00  0.000000000000E+00  0.000000000000E+00
  0.000000000000E+00  0.000000000000E+00  0.000000000000E+00  0.000000000000E+00
  0.000000000000E+00  0.000000000000E+00  0.000000000000E+00  0.000000000000E+00
  0.000000000000E+00  0.000000000000E+00  0.000000000000E+00  0.000000000000E+00
  0.000000000000E+00  0.000000000000E+00  0.000000000000E+00  0.000000000000E+00
  0.000000000000E+00  0.000000000000E+00  0.000000000000E+00  0.000000000000E+00
  0.000000000000E+00  0.000000000000E+00  0.000000000000E+00  0.000000000000E+00
  0.000000000000E+00  0.000000000000E+00  0.000000000000E+00  0.000000000000E+00
  0.000000000000E+00  0.000000000000E+00  0.000000000000E+00  0.000000000000E+00
  0.000000000000E+00  0.000000000000E+00  0.000000000000E+00  0.000000000000E+00
  0.000000000000E+00  0.000000000000E+00  0.000000000000E+00  0.000000000000E+00
  0.000000000000E+00  0.000000000000E+00  0.000000000000E+00  0.000000000000E+00
  0.000000000000E+00
</data>
</radfunc>
</valence-charge>
<pseudocore-charge matching-radius="0.819220499511"
 number-of-continuous-derivatives="4">
<annotation model-charge-form="Teter function with specified parameters" />
<radfunc>
<data npts="290">
  2.635286203609E+01  2.635078970816E+01  2.634459499450E+01  2.633426065476E+01
  2.631909804898E+01  2.629975357340E+01  2.627510323926E+01  2.624688190124E+01
  2.621515694041E+01  2.617816985643E+01  2.613649100566E+01  2.609120329862E+01
  2.603649048024E+01  2.597937194846E+01  2.592233587373E+01  2.585666796392E+01
  2.578108768998E+01  2.570948342240E+01  2.562903058659E+01  2.553866747077E+01
  2.543721350461E+01  2.534718897369E+01  2.524849488914E+01  2.514033420454E+01
  2.502184453528E+01  2.489209450691E+01  2.475008029672E+01  2.463487485521E+01
  2.451168107841E+01  2.437998950809E+01  2.423926503107E+01  2.408894669030E+01
  2.392844771035E+01  2.375715578059E+01  2.357443364456E+01  2.337962005061E+01
  2.317203112500E+01  2.295096223545E+01  2.279573775504E+01  2.263398305437E+01
  2.246547746648E+01  2.228999833597E+01  2.210732164905E+01  2.191722274554E+01
  2.171947711911E+01  2.151386131223E+01  2.130015391214E+01  2.107813665459E+01
  2.084759564166E+01  2.060832268024E+01  2.036011674725E+01  2.010278558746E+01
  1.983614744930E+01  1.956003296334E+01  1.927428716728E+01  1.897877168027E+01
  1.867336702811E+01  1.835797511914E+01  1.803252186893E+01  1.769695996956E+01
  1.735127179675E+01  1.699547244505E+01  1.662961287795E+01  1.625378317600E+01
  1.586811586153E+01  1.547278927390E+01  1.506803096400E+01  1.486220031113E+01
  1.465412107083E+01  1.444383702144E+01  1.423139563687E+01  1.401684818323E+01
  1.380024981247E+01  1.358165965238E+01  1.336114089242E+01  1.313876086488E+01
  1.291459112071E+01  1.268870749941E+01  1.246119019235E+01  1.223212379873E+01
  1.200159737368E+01  1.176970446753E+01  1.153654315567E+01  1.130221605813E+01
  1.106683034813E+01  1.083049774873E+01  1.059333451686E+01  1.035546141378E+01
  1.011700366122E+01  9.878090882225E+00  9.638857026107E+00  9.399440276394E+00
  9.159982941162E+00  8.920631324863E+00  8.681535580919E+00  8.442849544333E+00
  8.204730543647E+00  7.967339191602E+00  7.730839153936E+00  7.495396895821E+00
  7.261181405519E+00  7.028363894931E+00  6.797117476821E+00  6.567616818612E+00
  6.340037772764E+00  6.114556983911E+00  5.891351473056E+00  5.670598199293E+00
  5.452473599732E+00  5.237153108429E+00  5.024810655379E+00  4.815618146808E+00
  4.609744928222E+00  4.407357231910E+00  4.208617610813E+00  4.013684360935E+00
  3.822710934705E+00  3.635845347940E+00  3.453229583326E+00  3.274998993572E+00
  3.101281707620E+00  2.932198043546E+00  2.767859932007E+00  2.608370354275E+00
  2.453822799116E+00  2.304300742904E+00  2.159877157530E+00  2.020614050745E+00
  1.886562043655E+00  1.757759990119E+00  1.634234642762E+00  1.516000370288E+00
  1.403058930599E+00  1.295399304107E+00  1.192997591327E+00  1.095816978580E+00
  1.003807775222E+00  9.169075253975E-01  8.350411967831E-01  7.581214482185E-01
  6.860489774518E-01  6.187129495192E-01  5.559915054916E-01  4.977523504812E-01
  4.438534189130E-01  3.941436141361E-01  3.484636184851E-01  3.066467689255E-01
  2.685199924273E-01  2.339047942376E-01  2.026182912746E-01  1.744742819582E-01
  1.492843429584E-01  1.268589425818E-01  1.070085598702E-01  8.954479795619E-02
  7.428147984141E-02  6.103571454504E-02  4.962892153270E-02  3.988780149583E-02
  3.164524191816E-02  2.474114644912E-02  1.902317790893E-02  1.434740577457E-02
  1.057885023614E-02  7.591916356482E-03  5.270713496445E-03  3.509256960056E-03
  2.211550737768E-03  1.291552245930E-03  6.730220347866E-04  2.892635187905E-04
  8.275982095800E-05  4.716763723710E-06  1.452282706904E-05  7.913847581568E-05
  1.724285791948E-04  2.744526586508E-04  3.707283621417E-04  4.514838412048E-04
  5.109145774563E-04  5.464596569404E-04  5.581115265971E-04  5.477719047127E-04
  5.186647896608E-04  4.748154670618E-04  4.206021178261E-04  3.603841546899E-04
  2.982088498460E-04  2.375952558931E-04  1.813919652697E-04  1.317029978612E-04
  8.987414565268E-05  5.653052007172E-05  3.165490999023E-05  1.469591474181E-05
  4.694692277544E-06  4.195571523559E-07  4.985485127416E-07  3.541409634022E-06
  8.244097581405E-06  1.347087244860E-05  1.831108241378E-05  2.210983635810E-05
  2.447371164899E-05  2.525436007344E-05  2.451424529900E-05  2.247969055719E-05
  1.948688657939E-05  1.592649411859E-05  1.219199748127E-05  8.636086986501E-06
  5.538163238457E-06  3.084683591538E-06  1.362645036543E-06  3.651544414579E-07
  6.902812378479E-09  1.465382556597E-07  6.124921449195E-07  1.228782692165E-06
  1.837682771637E-06  2.316833933723E-06  2.589318475311E-06  2.626242725517E-06
  2.442402847481E-06  2.086470712924E-06  1.627745531241E-06  1.141797478005E-06
  6.972597298581E-07  3.456323550532E-07  1.153191788471E-07  1.033650963534E-08
  0.000000000000E+00  0.000000000000E+00  0.000000000000E+00  0.000000000000E+00
  0.000000000000E+00  0.000000000000E+00  0.000000000000E+00  0.000000000000E+00
  0.000000000000E+00  0.000000000000E+00  0.000000000000E+00  0.000000000000E+00
  0.000000000000E+00  0.000000000000E+00  0.000000000000E+00  0.000000000000E+00
  0.000000000000E+00  0.000000000000E+00  0.000000000000E+00  0.000000000000E+00
  0.000000000000E+00  0.000000000000E+00  0.000000000000E+00  0.000000000000E+00
  0.000000000000E+00  0.000000000000E+00  0.000000000000E+00  0.000000000000E+00
  0.000000000000E+00  0.000000000000E+00  0.000000000000E+00  0.000000000000E+00
  0.000000000000E+00  0.000000000000E+00  0.000000000000E+00  0.000000000000E+00
  0.000000000000E+00  0.000000000000E+00  0.000000000000E+00  0.000000000000E+00
  0.000000000000E+00  0.000000000000E+00  0.000000000000E+00  0.000000000000E+00
  0.000000000000E+00  0.000000000000E+00  0.000000000000E+00  0.000000000000E+00
  0.000000000000E+00  0.000000000000E+00  0.000000000000E+00  0.000000000000E+00
  0.000000000000E+00  0.000000000000E+00  0.000000000000E+00  0.000000000000E+00
  0.000000000000E+00  0.000000000000E+00
</data>
</radfunc>
</pseudocore-charge>
<semilocal-potentials set="scalar_relativistic">
<slps n="3" l="s" rc="1.56008580902" eref="-0.760432649376">
<radfunc>
<data npts="290">
  2.652332146803E+01  2.651213313404E+01  2.647872293169E+01  2.642310142164E+01
  2.634175270324E+01  2.623841347833E+01  2.610744876534E+01  2.595849178887E+01
  2.579227848540E+01  2.560012875096E+01  2.538568360609E+01  2.515513003424E+01
  2.487995398811E+01  2.459652780200E+01  2.431735658051E+01  2.400059531576E+01
  2.364205209442E+01  2.330818027027E+01  2.293961928710E+01  2.253372138581E+01
  2.208786258699E+01  2.170069312253E+01  2.128509079924E+01  2.083991800790E+01
  2.036416037030E+01  1.985695997914E+01  1.931765068881E+01  1.889182425885E+01
  1.844759637813E+01  1.798497108935E+01  1.750405320861E+01  1.700505600630E+01
  1.648830809996E+01  1.595425932495E+01  1.540348534509E+01  1.483669077053E+01
  1.425471056294E+01  1.365850953209E+01  1.325367591214E+01  1.284335886177E+01
  1.242793583796E+01  1.200780658806E+01  1.158339187643E+01  1.115513201683E+01
  1.072348521781E+01  1.028892575091E+01  9.851941954901E+00  9.413034091459E+00
  8.972712071218E+00  8.531493071193E+00  8.089899067398E+00  7.648454308563E+00
  7.207682758914E+00  6.768105539612E+00  6.330238399818E+00  5.894589249356E+00
  5.461655785522E+00  5.031923246889E+00  4.605862326709E+00  4.183927277997E+00
  3.766554241329E+00  3.354159824965E+00  2.947139964999E+00  2.545869090825E+00
  2.150699618325E+00  1.761961789657E+00  1.379963874431E+00  1.191582843678E+00
  1.004992742211E+00  8.202262405388E-01  6.373148106804E-01  4.562887761124E-01
  2.771773673074E-01  1.000087827028E-01 -7.518974509451E-02 -2.483918781029E-01
 -4.195720970375E-01 -5.887056209798E-01 -7.557683230144E-01 -9.207366422502E-01
 -1.083587492695E+00 -1.244298169507E+00 -1.402846253195E+00 -1.559209512413E+00
 -1.713365806025E+00 -1.865292985209E+00 -2.014968796393E+00 -2.162370785911E+00
 -2.307476207289E+00 -2.450261932168E+00 -2.590704365886E+00 -2.728779368828E+00
 -2.864462184679E+00 -2.997727376763E+00 -3.128548773696E+00 -3.256899425594E+00
 -3.382751572108E+00 -3.506076623553E+00 -3.626845156406E+00 -3.745026924414E+00
 -3.860590886512E+00 -3.973505252715E+00 -4.083737549022E+00 -4.191254702328E+00
 -4.296023146145E+00 -4.398008947810E+00 -4.497177957663E+00 -4.593495980433E+00
 -4.686928968832E+00 -4.777443239029E+00 -4.865005707377E+00 -4.949584147335E+00
 -5.031147465167E+00 -5.109665992490E+00 -5.185111793282E+00 -5.257458982407E+00
 -5.326684052169E+00 -5.392766202804E+00 -5.455687672228E+00 -5.515434059724E+00
 -5.571994637673E+00 -5.625362644815E+00 -5.675535554000E+00 -5.722515306872E+00
 -5.766308507550E+00 -5.806926567034E+00 -5.844385789944E+00 -5.878707395185E+00
 -5.909917462362E+00 -5.938046796267E+00 -5.963130702462E+00 -5.985208668132E+00
 -6.004323943748E+00 -6.020523022984E+00 -6.033855020508E+00 -6.044370950030E+00
 -6.052122908062E+00 -6.057163172466E+00 -6.059543228831E+00 -6.059312742116E+00
 -6.056518495666E+00 -6.051203324598E+00 -6.043405075587E+00 -6.033155629979E+00
 -6.020480031898E+00 -6.005395767201E+00 -5.987912242697E+00 -5.968030517490E+00
 -5.945743339528E+00 -5.921035539926E+00 -5.893884835096E+00 -5.864263081846E+00
 -5.832138022917E+00 -5.797475549734E+00 -5.760242495011E+00 -5.720409950219E+00
 -5.677957081518E+00 -5.632875392724E+00 -5.585173355384E+00 -5.534881294415E+00