<?xml version="1.0" encoding="UTF-8" ?>
<psml version="1.1" energy_unit="hartree" length_unit="bohr"
 uuid="81363d80-23d2-11e8-715f-b18f7fff7a97"
 xmlns="http://esl.cecam.org/PSML/ns/1.1">
<provenance creator="ONCVPSP-3.3.0+psml-3.3.0-73 (scalar-relativistic)"
 date="2018-03-09">
<annotation action="semilocal-pseudopotential-generation"
 action-cont="projectors-generation" />
<input-file name="oncvpsp-input">
<![CDATA[# atsym z nc nv iexc psfile
Cr 24 3 4 -001012 upf
# n l f
1 0 2.0
2 0 2.0
2 1 6.0
3 0 2.0
3 1 6.0
3 2 5.0
4 0 1.0
# lmax
2
# l rc ep ncon nbas qcut
0 1.3 0.0 4 8 8.9
1 1.3 0.0 4 7 10.0
2 1.7 0.0 4 8 10.0
# lloc lpopt rc5 dvloc0
4 5 1.3 0.0
# l nproj debl
0 2 1.0
1 2 1.0
2 2 1.0
# icmod fcfact rcfact
3 5.0 1.32
# epsh1 epsh2 depsh
-18.0 12.0 0.02
# rlmax drl
6.0 0.01
 0
]]>
</input-file>
</provenance>
<pseudo-atom-spec atomic-label="Cr" atomic-number="24" z-pseudo="14"
 flavor="Hamann&apos;s oncvpsp" relativity="scalar" spin-dft="no"
 core-corrections="yes">
<annotation pseudo-energy="-86.0934858477" />
<exchange-correlation>
<annotation oncvpsp-xc-code="-1012" oncvpsp-xc-type="libxc-interface" />
<libxc-info number-of-functionals="2">
<functional name="Slater exchange (LDA)" type="exchange" id="1" />
<functional name="Perdew &amp; Wang (LDA)" type="correlation" id="12" />
</libxc-info>
</exchange-correlation>
<valence-configuration total-valence-charge="14">
<shell n="3" l="s" occupation="2" />
<shell n="3" l="p" occupation="6" />
<shell n="3" l="d" occupation="5" />
<shell n="4" l="s" occupation="1" />
</valence-configuration>
</pseudo-atom-spec>
<grid npts="457">
<annotation type="sampled from oncvpsp log grid"
 recipe="r(i:1..N) = r1*exp(a*(i-1)) + r=0; resampled"
 recipe-cont="r1: scale; a: step" scale="0.208333333333E-04"
 step="0.119285708653E-01" delta="0.500000000000E-02" rmax="44.0721796572" />
<grid-data>
  0.000000000000E+00  5.032624347497E-03  1.005227218795E-02  1.508001122169E-02
  2.031956831929E-02  2.548849629768E-02  3.084838375803E-02  3.602293359331E-02
  4.107378401246E-02  4.627749473396E-02  5.152220634232E-02  5.668113689579E-02
  6.235663237039E-02  6.778697285802E-02  7.281641866882E-02  7.821902357048E-02
  8.402247405418E-02  8.918627550078E-02  9.466743067541E-02  1.004854433080E-01
  1.066610157766E-01  1.118736391042E-01  1.173410081958E-01  1.230755727145E-01
  1.290903907501E-01  1.353991585533E-01  1.420162417235E-01  1.471904228460E-01
  1.525531186762E-01  1.581111975076E-01  1.638717778713E-01  1.698422376531E-01
  1.760302235427E-01  1.824436608270E-01  1.890907635409E-01  1.959800449871E-01
  2.031203286396E-01  2.105207594445E-01  2.156035726605E-01  2.208091053189E-01
  2.261403203577E-01  2.316002522524E-01  2.371920087428E-01  2.429187726019E-01
  2.487838034476E-01  2.547904395980E-01  2.609420999717E-01  2.672422860334E-01
  2.736945837874E-01  2.803026658183E-01  2.870702933818E-01  2.940013185453E-01
  3.010996863802E-01  3.083694372082E-01  3.158147089001E-01  3.234397392318E-01
  3.312488682958E-01  3.392465409720E-01  3.474373094572E-01  3.558258358567E-01
  3.644168948376E-01  3.732153763466E-01  3.822262883931E-01  3.914547599001E-01
  4.009060436231E-01  4.105855191403E-01  4.204986959145E-01  4.255446802654E-01
  4.306512164286E-01  4.358190310258E-01  4.410488593981E-01  4.463414457109E-01
  4.516975430594E-01  4.571179135761E-01  4.626033285390E-01  4.681545684815E-01
  4.737724233033E-01  4.794576923829E-01  4.852111846915E-01  4.910337189078E-01
  4.969261235347E-01  5.028892370171E-01  5.089239078613E-01  5.150309947556E-01
  5.212113666927E-01  5.274659030930E-01  5.337954939301E-01  5.402010398573E-01
  5.466834523356E-01  5.532436537636E-01  5.598825776088E-01  5.666011685401E-01
  5.734003825626E-01  5.802811871533E-01  5.872445613992E-01  5.942914961360E-01
  6.014229940896E-01  6.086400700187E-01  6.159437508589E-01  6.233350758692E-01
  6.308150967796E-01  6.383848779410E-01  6.460454964763E-01  6.537980424340E-01
  6.616436189432E-01  6.695833423705E-01  6.776183424790E-01  6.857497625887E-01
  6.939787597398E-01  7.023065048566E-01  7.107341829149E-01  7.192629931099E-01
  7.278941490272E-01  7.366288788155E-01  7.454684253613E-01  7.544140464657E-01
  7.634670150233E-01  7.726286192035E-01  7.819001626340E-01  7.912829645856E-01
  8.007783601606E-01  8.103877004825E-01  8.201123528883E-01  8.299537011230E-01
  8.399131455365E-01  8.499921032829E-01  8.601920085223E-01  8.705143126246E-01
  8.809604843761E-01  8.915320101886E-01  9.022303943108E-01  9.130571590426E-01
  9.240138449511E-01  9.351020110905E-01  9.463232352236E-01  9.576791140463E-01
  9.691712634148E-01  9.808013185758E-01  9.925709343987E-01  1.004481785611E+00
  1.016535567039E+00  1.028733993843E+00  1.041078801769E+00  1.053571747391E+00
  1.066214608359E+00  1.079009183660E+00  1.091957293864E+00  1.105060781390E+00
  1.118321510767E+00  1.131741368896E+00  1.145322265323E+00  1.159066132506E+00
  1.172974926096E+00  1.187050625210E+00  1.201295232712E+00  1.215710775505E+00
  1.230299304811E+00  1.245062896469E+00  1.260003651226E+00  1.275123695041E+00
  1.290425179381E+00  1.305910281534E+00  1.321581204912E+00  1.337440179371E+00
  1.353489461524E+00  1.369731335062E+00  1.386168111083E+00  1.402802128416E+00
  1.419635753957E+00  1.436671383004E+00  1.453911439600E+00  1.471358376875E+00
  1.489014677398E+00  1.506882853527E+00  1.524965447769E+00  1.543265033142E+00
  1.561784213540E+00  1.580525624102E+00  1.599491931592E+00  1.618685834771E+00
  1.638110064788E+00  1.657767385566E+00  1.677660594192E+00  1.697792521323E+00
  1.718166031578E+00  1.738784023957E+00  1.759649432245E+00  1.780765225432E+00
  1.802134408137E+00  1.823760021035E+00  1.845645141287E+00  1.867792882983E+00
  1.890206397578E+00  1.912888874349E+00  1.935843540841E+00  1.959073663332E+00
  1.982582547292E+00  2.006373537859E+00  2.030450020313E+00  2.054815420557E+00
  2.079473205604E+00  2.104426884071E+00  2.129680006680E+00  2.155236166760E+00
  2.181099000761E+00  2.207272188770E+00  2.233759455036E+00  2.260564568496E+00
  2.287691343318E+00  2.315143639438E+00  2.342925363111E+00  2.371040467468E+00
  2.399492953078E+00  2.428286868515E+00  2.457426310937E+00  2.486915426668E+00
  2.516758411788E+00  2.546959512730E+00  2.577523026883E+00  2.608453303205E+00
  2.639754742844E+00  2.671431799758E+00  2.703488981355E+00  2.735930849131E+00
  2.768762019321E+00  2.801987163552E+00  2.835611009515E+00  2.869638341629E+00
  2.904074001729E+00  2.938922889750E+00  2.974189964427E+00  3.009880244000E+00
  3.045998806928E+00  3.082550792611E+00  3.119541402122E+00  3.156975898948E+00
  3.194859609735E+00  3.233197925052E+00  3.271996300152E+00  3.311260255754E+00
  3.350995378823E+00  3.391207323369E+00  3.431901811250E+00  3.473084632985E+00
  3.514761648580E+00  3.556938788363E+00  3.599622053824E+00  3.642817518470E+00
  3.686531328691E+00  3.730769704636E+00  3.775538941091E+00  3.820845408384E+00
  3.866695553285E+00  3.913095899924E+00  3.960053050723E+00  4.007573687332E+00
  4.055664571580E+00  4.104332546439E+00  4.153584536996E+00  4.203427551440E+00
  4.253868682058E+00  4.304915106242E+00  4.356574087517E+00  4.408852976567E+00
  4.461759212286E+00  4.515300322834E+00  4.569483926708E+00  4.624317733828E+00
  4.679809546634E+00  4.735967261194E+00  4.792798868328E+00  4.850312454748E+00
  4.908516204205E+00  4.967418398655E+00  5.027027419439E+00  5.087351748472E+00
  5.148399969454E+00  5.210180769088E+00  5.272702938317E+00  5.335975373576E+00
  5.400007078059E+00  5.464807162996E+00  5.530384848952E+00  5.596749467139E+00
  5.663910460745E+00  5.731877386274E+00  5.800659914909E+00  5.870267833888E+00
  5.940711047895E+00  6.011999580470E+00  6.084143575435E+00  6.157153298341E+00
  6.231039137921E+00  6.305811607576E+00  6.381481346867E+00  6.458059123029E+00
  6.535555832505E+00  6.613982502495E+00  6.693350292525E+00  6.773670496036E+00
  6.854954541988E+00  6.937213996492E+00  7.020460564450E+00  7.104706091223E+00
  7.189962564318E+00  7.276242115090E+00  7.363557020471E+00  7.451919704716E+00
  7.541342741173E+00  7.631838854067E+00  7.723420920316E+00  7.816101971360E+00
  7.909895195016E+00  8.004813937356E+00  8.100871704605E+00  8.198082165060E+00
  8.296459151040E+00  8.396016660853E+00  8.496768860783E+00  8.598730087113E+00
  8.701914848158E+00  8.806337826336E+00  8.912013880252E+00  9.018958046815E+00
  9.127185543377E+00  9.236711769897E+00  9.347552311136E+00  9.459722938870E+00
  9.573239614136E+00  9.688118489506E+00  9.804375911380E+00  9.922028422316E+00
  1.004109276338E+01  1.016158587654E+01  1.028352490706E+01  1.040692720595E+01
  1.053181033242E+01  1.065819205641E+01  1.078609036109E+01  1.091552344542E+01
  1.104650972676E+01  1.117906784348E+01  1.131321665761E+01  1.144897525750E+01
  1.158636296059E+01  1.172539931611E+01  1.186610410791E+01  1.200849735720E+01
  1.215259932549E+01  1.229843051740E+01  1.244601168360E+01  1.259536382381E+01
  1.274650818969E+01  1.289946628797E+01  1.305425988342E+01  1.321091100203E+01
  1.336944193405E+01  1.352987523726E+01  1.369223374011E+01  1.385654054499E+01
  1.402281903153E+01  1.419109285991E+01  1.436138597422E+01  1.453372260591E+01
  1.470812727719E+01  1.488462480451E+01  1.506324030217E+01  1.524399918579E+01
  1.542692717602E+01  1.561205030213E+01  1.579939490576E+01  1.598898764463E+01
  1.618085549636E+01  1.637502576232E+01  1.657152607147E+01  1.677038438433E+01
  1.697162899694E+01  1.717528854490E+01  1.738139200744E+01  1.758996871153E+01
  1.780104833607E+01  1.801466091610E+01  1.823083684709E+01  1.844960688926E+01
  1.867100217193E+01  1.889505419799E+01  1.912179484837E+01  1.935125638655E+01
  1.958347146319E+01  1.981847312075E+01  2.005629479820E+01  2.029697033577E+01
  2.054053397980E+01  2.078702038756E+01  2.103646463221E+01  2.128890220780E+01
  2.154436903429E+01  2.180290146270E+01  2.206453628026E+01  2.232931071562E+01
  2.259726244421E+01  2.286842959354E+01  2.314285074866E+01  2.342056495764E+01
  2.370161173713E+01  2.398603107798E+01  2.427386345092E+01  2.456514981233E+01
  2.485993161007E+01  2.515825078940E+01  2.546014979887E+01  2.576567159645E+01
  2.607485965561E+01  2.638775797148E+01  2.670441106714E+01  2.702486399994E+01
  2.734916236794E+01  2.767735231636E+01  2.800948054415E+01  2.834559431068E+01
  2.868574144241E+01  2.902997033972E+01  2.937832998380E+01  2.973086994360E+01
  3.008764038293E+01  3.044869206752E+01  3.081407637233E+01  3.118384528880E+01
  3.155805143227E+01  3.193674804945E+01  3.231998902605E+01  3.270782889436E+01
  3.310032284109E+01  3.349752671518E+01  3.389949703577E+01  3.430629100020E+01
  3.471796649220E+01  3.513458209010E+01  3.555619707519E+01  3.598287144009E+01
  3.641466589737E+01  3.685164188814E+01  3.729386159079E+01  3.774138792988E+01
  3.819428458504E+01  3.865261600006E+01  3.911644739206E+01  3.958584476077E+01
  4.006087489790E+01  4.054160539667E+01  4.102810466143E+01  4.152044191737E+01
  4.201868722038E+01  4.252291146702E+01  4.303318640463E+01  4.354958464148E+01
  4.407217965718E+01
</grid-data>
</grid>
<valence-charge total-charge="14" is-unscreening-charge="yes"
 rescaled-to-z-pseudo="no">
<radfunc>
<data npts="457">
  4.590122475736E+00  4.594153398042E+00  4.606201996551E+00  4.626299305302E+00
  4.655779895452E+00  4.693380367693E+00  4.741276221058E+00  4.796085999772E+00
  4.857668830985E+00  4.929423926659E+00  5.010226160625E+00  5.097958409133E+00
  5.203856145900E+00  5.314300614787E+00  5.424472892013E+00  5.551177687128E+00
  5.696819371300E+00  5.834610789778E+00  5.989208284521E+00  6.162565951379E+00
  6.356838447128E+00  6.528898989878E+00  6.717171755539E+00  6.923067158453E+00
  7.148092408273E+00  7.393852010791E+00  7.662046452716E+00  7.878990321136E+00
  8.110348834600E+00  8.356935180241E+00  8.619584208226E+00  8.899148328449E+00
  9.196492298025E+00  9.512486715861E+00  9.848000017851E+00  1.020388874240E+01
  1.058098581129E+01  1.098008654633E+01  1.125874676653E+01  1.154771963775E+01
  1.184719010334E+01  1.215732251055E+01  1.247825707400E+01  1.281010599315E+01
  1.315294920362E+01  1.350682974295E+01  1.387174871316E+01  1.424765982458E+01
  1.463446350839E+01  1.503200058925E+01  1.544004551473E+01  1.585829914424E+01
  1.628638110831E+01  1.672382175845E+01  1.717005373923E+01  1.762440322762E+01
  1.808608090062E+01  1.855417271008E+01  1.902763056480E+01  1.950526304345E+01
  1.998572628834E+01  2.046751525916E+01  2.094895555790E+01  2.142819607028E+01
  2.190320270505E+01  2.237175355034E+01  2.283143580369E+01  2.305714473761E+01
  2.327964486948E+01  2.349858093356E+01  2.371358605194E+01  2.392428196189E+01
  2.413027930229E+01  2.433117796313E+01  2.452656750177E+01  2.471602763020E+01
  2.489912877683E+01  2.507543272677E+01  2.524449334417E+01  2.540585738006E+01
  2.555906536897E+01  2.570365261719E+01  2.583915028547E+01  2.596508656816E+01
  2.608098797084E+01  2.618638068738E+01  2.628079207743E+01  2.636375224400E+01
  2.643479571069E+01  2.649346319675E+01  2.653930348764E+01  2.657187539771E+01
  2.659074982041E+01  2.659551186048E+01  2.658576304146E+01  2.656112358036E+01
  2.652123472035E+01  2.646576111066E+01  2.639439322188E+01  2.630684978304E+01
  2.620288022589E+01  2.608226712002E+01  2.594482858134E+01  2.579042063510E+01
  2.561893951332E+01  2.543032386552E+01  2.522455686036E+01  2.500166815533E+01
  2.476173571065E+01  2.450488742323E+01  2.423130255626E+01  2.394121294013E+01
  2.363490392068E+01  2.331271503148E+01  2.297504036772E+01  2.262232864108E+01
  2.225508289615E+01  2.187385987163E+01  2.147926899187E+01  2.107197097725E+01
  2.065267606538E+01  2.022214183874E+01  1.978117065837E+01  1.933060670770E+01
  1.887133265521E+01  1.840426594934E+01  1.793035476406E+01  1.745057361874E+01
  1.696591870053E+01  1.647740292280E+01  1.598605075771E+01  1.549289288512E+01
  1.499896070460E+01  1.450528076011E+01  1.401286913040E+01  1.352272583994E+01
  1.303582934679E+01  1.255313116444E+01  1.207555067419E+01  1.160397018339E+01
  1.113923028289E+01  1.068212555352E+01  1.023340066772E+01  9.793746927208E+00
  9.363799272178E+00  8.944133790736E+00  8.535265750709E+00  8.137648168291E+00
  7.751670920450E+00  7.377660400251E+00  7.015879706524E+00  6.666529351905E+00
  6.329748466216E+00  6.005616465730E+00  5.694155153158E+00  5.395331208332E+00
  5.109059025675E+00  4.835203851725E+00  4.573585174217E+00  4.323980313610E+00
  4.086128168400E+00  3.859733067112E+00  3.644469371385E+00  3.439988885335E+00
  3.245930041041E+00  3.061921030464E+00  2.887582778369E+00  2.722531754504E+00
  2.566382609064E+00  2.418750610321E+00  2.279253876953E+00  2.147515398506E+00
  2.023164840163E+00  1.905840130592E+00  1.795188834177E+00  1.690869311438E+00
  1.592551673907E+00  1.499918542111E+00  1.412665617470E+00  1.330502080907E+00
  1.253150832477E+00  1.180348587384E+00  1.111845844148E+00  1.047406740315E+00
  9.868088099029E-01  9.298423132682E-01  8.763081541360E-01  8.260150372319E-01
  7.787794937788E-01  7.344258253095E-01  6.927860436874E-01  6.536997835551E-01
  6.170141900000E-01  5.825837841278E-01  5.502703091288E-01  5.199425593071E-01
  4.914761944248E-01  4.647535415891E-01  4.396633867846E-01  4.161007580231E-01
  3.939667019552E-01  3.731680556571E-01  3.536172151781E-01  3.352319023067E-01
  3.179349308878E-01  3.016539739031E-01  2.863213324065E-01  2.718737072936E-01
  2.582519747747E-01  2.454009663130E-01  2.332692536948E-01  2.218089397982E-01
  2.109754555435E-01  2.007273634203E-01  1.910261679125E-01  1.818361330675E-01
  1.731241073917E-01  1.648593561922E-01  1.570134014305E-01  1.495598691030E-01
  1.424743441178E-01  1.357342326003E-01  1.293186315194E-01  1.232082055014E-01
  1.173850706665E-01  1.118326853046E-01  1.065357471849E-01  1.014800972794E-01
  9.665262966816E-02  9.204120738514E-02  8.763458395382E-02  8.342233036115E-02
  7.939476721308E-02  7.554290181580E-02  7.185836992775E-02  6.833338193041E-02
  6.496067316971E-02  6.173345822547E-02  5.864538887211E-02  5.569051550110E-02
  5.286325178296E-02  5.015834235501E-02  4.757083332945E-02  4.509604542511E-02
  4.272954953523E-02  4.046714455278E-02  3.830483728378E-02  3.623882428824E-02
  3.426547549708E-02  3.238131946243E-02  3.058303010704E-02  2.886741484679E-02
  2.723140396868E-02  2.567204115390E-02  2.418647504350E-02  2.277195175105E-02
  2.142580823329E-02  2.014546643665E-02  1.892842814316E-02  1.777227044533E-02
  1.667464178481E-02  1.563325849467E-02  1.464590179139E-02  1.371041516306E-02
  1.282470211015E-02  1.198672419491E-02  1.119449936042E-02  1.044610048420E-02
  9.739654133559E-03  9.073339493547E-03  8.445387440671E-03  7.854079738180E-03
  7.297748331137E-03  6.774774721583E-03  6.283589406178E-03  5.822671360538E-03
  5.390547556246E-03  4.985792498120E-03  4.607027770790E-03  4.252921585061E-03
  3.922188315771E-03  3.613588024092E-03  3.325925958271E-03  3.058052027876E-03
  2.808860247519E-03  2.577288146922E-03  2.362316144974E-03  2.162966886190E-03
  1.978304538656E-03  1.807434053136E-03  1.649500383637E-03  1.503687670189E-03
  1.369218385080E-03  1.245352444210E-03  1.131386285557E-03  1.026651917103E-03
  9.305159368169E-04  8.423785275283E-04  7.616724297153E-04  6.878618953809E-04
  6.204416262978E-04  5.589356999786E-04  5.028964867683E-04  4.519035614624E-04
  4.055626128291E-04  3.635043543649E-04  3.253834395294E-04  2.908773846069E-04
  2.596855022147E-04  2.315278483339E-04  2.061441855799E-04  1.832929652492E-04
  1.627503304962E-04  1.443091427913E-04  1.277780336090E-04  1.129804830841E-04
  9.975392715769E-05  8.794889452555E-05  7.742817448301E-05  6.806601655495E-05
  5.974736259171E-05  5.236711181413E-05  4.582941909983E-05  4.004702662098E-05
  3.494062877211E-05  3.043827016588E-05  2.647477632568E-05  2.299121656735E-05
  1.993439843843E-05  1.725639297211E-05  1.491408991491E-05  1.286878200222E-05
  1.108577728276E-05  9.534038433377E-06  8.185847956860E-06  7.016498118967E-06
  6.004004454623E-06  5.128841657373E-06  4.373700659753E-06  3.723265714361E-06
  3.164010295549E-06  2.684010658777E-06  2.272775918169E-06  1.921093531742E-06
  1.620889117515E-06  1.365099561343E-06  1.147558418267E-06  9.628926526905E-07
  8.064298081314E-07  6.741147440979E-07  5.624351252281E-07  4.683548957249E-07
  3.892550198626E-07  3.228808165500E-07  2.672952622628E-07  2.208376817459E-07
  1.820872895850E-07  1.498310981229E-07  1.230356092742E-07  1.008227759392E-07
  8.244604500105E-08  6.727644206780E-08  5.478247357084E-08  4.451441607668E-08
  3.609374478483E-08  2.920297428690E-08  2.357640683023E-08  1.899218225144E-08
  1.526546280143E-08  1.224260491720E-08  9.796187076863E-09  7.820778313532E-09
  6.229345870276E-09  4.950212963272E-09  3.924488792463E-09  3.103902887259E-09
  2.448985370895E-09  1.927537680251E-09  8.242345938253E-10  6.387144192248E-10
  4.935647631969E-10  3.803201269839E-10  2.922188314661E-10  2.238755192221E-10
  1.710133883555E-10  1.302459099862E-10  9.889941496268E-11  7.486933159594E-11
  5.650404546922E-11  4.251136188825E-11  3.188340552997E-11  2.383651180869E-11
  1.776326935328E-11  1.319437941622E-11  9.768420566956E-12  7.207958324788E-12
  5.300730443056E-12  3.884878847042E-12  2.837396902291E-12  2.065122724420E-12
  1.497741583095E-12  1.082368150748E-12  7.793666690782E-13  5.591376473909E-13
  3.996564795526E-13  2.845948868771E-13  2.018924547262E-13  1.426744635346E-13
  1.004351489717E-13  7.042363422437E-14  4.918401926846E-14  3.421226866826E-14
  2.370124430053E-14  1.635199383216E-14  1.123464088652E-14  7.686257674153E-15
  5.236197677731E-15  3.551732842570E-15  2.398641000545E-15  1.612754208206E-15
  1.079508508584E-15  7.193091998043E-16  4.771041984324E-16  3.149887704735E-16
  2.069840849591E-16  1.353675072905E-16  8.810544587017E-17  5.706592562142E-17
  3.677997357232E-17  2.358743570056E-17  1.505077417504E-17  9.554752747173E-18
  6.034425931146E-18  3.791241347057E-18  2.369346673419E-18  1.472820793299E-18
  9.105785251987E-19  5.598901700278E-19  3.423557482400E-19  2.081674409723E-19
  1.258574955687E-19  7.565660018882E-20  4.521536104360E-20  2.686372661734E-20
  1.586561274473E-20  9.313794680773E-21  5.434307307881E-21  3.151211597348E-21
  1.815910705488E-21  1.039829789063E-21  5.916266224423E-22  3.344391697890E-22
  1.878178504821E-22  0.000000000000E+00  0.000000000000E+00  0.000000000000E+00
  0.000000000000E+00
</data>
</radfunc>
</valence-charge>
<pseudocore-charge matching-radius="0.473772423303"
 number-of-continuous-derivatives="4">
<annotation model-charge-form="Teter function with specified parameters" />
<radfunc>
<data npts="290">
  1.257308799061E+02  1.257051572070E+02  1.256282836269E+02  1.255000995067E+02
  1.253121635290E+02  1.250726302281E+02  1.247677798794E+02  1.244192935339E+02
  1.240282141825E+02  1.235731638153E+02  1.230615463679E+02  1.225070166399E+02
  1.218390061223E+02  1.211438701237E+02  1.204520260475E+02  1.196583080584E+02
  1.187485264530E+02  1.178902992340E+02  1.169302991267E+02  1.158574434159E+02
  1.146597065953E+02  1.136029154139E+02  1.124508410243E+02  1.111960438383E+02
  1.098307447614E+02  1.083468649874E+02  1.067360817636E+02  1.054396093173E+02
  1.040633641129E+02  1.026037367490E+02  1.010571563589E+02  9.942012982118E+01
  9.768928718558E+01  9.586143383191E+01  9.393360983904E+01  9.190315698212E+01
  8.976779368228E+01  8.752569810073E+01  8.597101880581E+01  8.436810444394E+01
  8.271687688827E+01  8.101741470606E+01  7.926996820846E+01  7.747497496405E+01
  7.563307567345E+01  7.374513027964E+01  7.181223416337E+01  6.983573424547E+01
  6.781724478840E+01  6.575866265786E+01  6.366218177222E+01  6.153030643332E+01
  5.936586319732E+01  5.717201090979E+01  5.495224849568E+01  5.271042006358E+01
  5.045071685617E+01  4.817767555638E+01  4.589617244366E+01  4.361141288844E+01
  4.132891567854E+01  3.905449169054E+01  3.679421645490E+01  3.455439621921E+01
  3.234152719069E+01  3.016224774121E+01  2.802328348573E+01  2.697103005435E+01
  2.593138530225E+01  2.490518574979E+01  2.389326054631E+01  2.289642898371E+01
  2.191549792840E+01  2.095125917972E+01  2.000448676418E+01  1.907593417583E+01
  1.816633157447E+01  1.727638295438E+01  1.640676329760E+01  1.555811572691E+01
  1.473104867471E+01  1.392613308531E+01  1.314389966898E+01  1.238483622721E+01
  1.164938506953E+01  1.093794054295E+01  1.025084669568E+01  9.588395097417E+00
  8.950822838741E+00  8.338310732169E+00  7.750981737472E+00  7.188899633439E+00
  6.652067957654E+00  6.140429235013E+00  5.653864514494E+00  5.192193232224E+00
  4.755173417042E+00  4.342502252653E+00  3.953817007946E+00  3.588696344254E+00
  3.246662005192E+00  2.927180891240E+00  2.629667517481E+00  2.353486848903E+00
  2.097957503377E+00  1.862355307999E+00  1.645917189878E+00  1.447845377761E+00
  1.267311886187E+00  1.103463249233E+00  9.554254663630E-01  8.223091186417E-01
  7.032146095716E-01  5.972374812540E-01  5.034737535139E-01  4.210252311676E-01
  3.490047228579E-01  2.865411139042E-01  2.327842355161E-01  1.869094735521E-01
  1.481220618381E-01  1.156610079291E-01  8.880260311690E-02  6.686347346321E-02
  4.920313463104E-02  3.522602025072E-02  2.438296139650E-02  1.617210335515E-02
  1.013925509076E-02  5.877676475360E-03  3.027318262283E-03  1.273539702721E-03
  3.453384013197E-04  1.313621768732E-05  8.617348329049E-05  4.095712566991E-04
  8.611275342731E-04  1.347918038934E-03  1.802775228257E-03  2.180720337359E-03
  2.455422495123E-03  2.615756176485E-03  2.662523497514E-03  2.605401213810E-03
  2.460163910203E-03  2.246225008185E-03  1.984526173489E-03  1.695793848274E-03
  1.399169379394E-03  1.111207020489E-03  8.452224227229E-04  6.109635645981E-04
  4.145668463713E-04  2.587536801353E-04  1.432176600397E-04  6.514952168961E-05
  1.984670678172E-05  1.356425458226E-06  3.105511162920E-06  1.847681840347E-05
  4.130003092371E-05  6.623403347628E-05  8.902788710961E-05  1.066573269011E-04
  1.173429612582E-04  1.204644215053E-04  1.163910987828E-04  1.062544410435E-04
  9.168884580665E-05  7.456792634934E-05  5.676048301218E-05  3.992618459926E-05
  2.536521731634E-05  1.392956588032E-05  5.996795104253E-06  1.500850014216E-06
  9.083755785689E-09  8.309367117330E-07  3.141744383277E-06  6.105162751364E-06
  8.979570107665E-06  1.119722940228E-05  1.240949723591E-05  1.249634861825E-05
  1.154330793825E-05  9.792927774563E-06  7.580743069604E-06  5.266833950891E-06
  3.173666081067E-06  1.538891847239E-06  4.886567500887E-07  3.319581956769E-08
  0.000000000000E+00  0.000000000000E+00  0.000000000000E+00  0.000000000000E+00
  0.000000000000E+00  0.000000000000E+00  0.000000000000E+00  0.000000000000E+00
  0.000000000000E+00  0.000000000000E+00  0.000000000000E+00  0.000000000000E+00
  0.000000000000E+00  0.000000000000E+00  0.000000000000E+00  0.000000000000E+00
  0.000000000000E+00  0.000000000000E+00  0.000000000000E+00  0.000000000000E+00
  0.000000000000E+00  0.000000000000E+00  0.000000000000E+00  0.000000000000E+00
  0.000000000000E+00  0.000000000000E+00  0.000000000000E+00  0.000000000000E+00
  0.000000000000E+00  0.000000000000E+00  0.000000000000E+00  0.000000000000E+00
  0.000000000000E+00  0.000000000000E+00  0.000000000000E+00  0.000000000000E+00
  0.000000000000E+00  0.000000000000E+00  0.000000000000E+00  0.000000000000E+00
  0.000000000000E+00  0.000000000000E+00  0.000000000000E+00  0.000000000000E+00
  0.000000000000E+00  0.000000000000E+00  0.000000000000E+00  0.000000000000E+00
  0.000000000000E+00  0.000000000000E+00  0.000000000000E+00  0.000000000000E+00
  0.000000000000E+00  0.000000000000E+00  0.000000000000E+00  0.000000000000E+00
  0.000000000000E+00  0.000000000000E+00  0.000000000000E+00  0.000000000000E+00
  0.000000000000E+00  0.000000000000E+00  0.000000000000E+00  0.000000000000E+00
  0.000000000000E+00  0.000000000000E+00  0.000000000000E+00  0.000000000000E+00
  0.000000000000E+00  0.000000000000E+00  0.000000000000E+00  0.000000000000E+00
  0.000000000000E+00  0.000000000000E+00  0.000000000000E+00  0.000000000000E+00
  0.000000000000E+00  0.000000000000E+00  0.000000000000E+00  0.000000000000E+00
  0.000000000000E+00  0.000000000000E+00  0.000000000000E+00  0.000000000000E+00
  0.000000000000E+00  0.000000000000E+00  0.000000000000E+00  0.000000000000E+00
  0.000000000000E+00  0.000000000000E+00  0.000000000000E+00  0.000000000000E+00
  0.000000000000E+00  0.000000000000E+00  0.000000000000E+00  0.000000000000E+00
  0.000000000000E+00  0.000000000000E+00
</data>
</radfunc>
</pseudocore-charge>
<semilocal-potentials set="scalar_relativistic">
<slps n="3" l="s" rc="1.30591028153" eref="-2.70327982066">
<radfunc>
<data npts="290">
 -1.106041675075E+01 -1.106176363363E+01 -1.106576580866E+01 -1.107243634520E+01
 -1.108221639923E+01 -1.109468281252E+01 -1.111055103633E+01 -1.112869408018E+01
 -1.114905910137E+01 -1.117276139265E+01 -1.119941797299E+01 -1.122831991784E+01
 -1.126314978624E+01 -1.129940966468E+01 -1.133551396527E+01 -1.137695476175E+01
 -1.142448228987E+01 -1.146934344228E+01 -1.151955594703E+01 -1.157571147699E+01
 -1.163845473781E+01 -1.169386045868E+01 -1.175431185102E+01 -1.182021418922E+01
 -1.189199407445E+01 -1.197009806085E+01 -1.205499056582E+01 -1.212340279968E+01
 -1.219610944163E+01 -1.227331925543E+01 -1.235524186013E+01 -1.244208602054E+01
 -1.253405763399E+01 -1.263135738111E+01 -1.273417800770E+01 -1.284270120409E+01
 -1.295709404872E+01 -1.307750498341E+01 -1.316118529269E+01 -1.324762694801E+01
 -1.333685404209E+01 -1.342888360717E+01 -1.352372479127E+01 -1.362137798406E+01
 -1.372183389264E+01 -1.382507256748E+01 -1.393106237995E+01 -1.403975895307E+01
 -1.415110404817E+01 -1.426502441080E+01 -1.438143058050E+01 -1.450021566984E+01
 -1.462125411980E+01 -1.474440043954E+01 -1.486948794077E+01 -1.499632747812E+01
 -1.512470620958E+01 -1.525438639258E+01 -1.538510423434E+01 -1.551656881722E+01
 -1.564846112291E+01 -1.578043318211E+01 -1.591210737918E+01 -1.604307594435E+01
 -1.617290066885E+01 -1.630111288025E+01 -1.642721371762E+01 -1.648930836598E+01
 -1.655067474616E+01 -1.661124234585E+01 -1.667093895105E+01 -1.672969070051E+01
 -1.678742214729E+01 -1.684405632781E+01 -1.689951483855E+01 -1.695371792039E+01
 -1.700658455077E+01 -1.705803254356E+01 -1.710797865677E+01 -1.715633870775E+01
 -1.720302769588E+01 -1.724795993244E+01 -1.729104917728E+01 -1.733220878192E+01
 -1.737135183861E+01 -1.740839133481E+01 -1.744324031233E+01 -1.747581203061E+01
 -1.750602013317E+01 -1.753377881661E+01 -1.755900300108E+01 -1.758160850139E+01
 -1.760151219781E+01 -1.761863220549E+01 -1.763288804152E+01 -1.764420078863E+01
 -1.765249325445E+01 -1.765769012536E+01 -1.765971811380E+01 -1.765850609825E+01
 -1.765398525468E+01 -1.764608917866E+01 -1.763475399721E+01 -1.761991846948E+01
 -1.760152407540E+01 -1.757951509164E+01 -1.755383865402E+01 -1.752444480585E+01
 -1.749128653157E+01 -1.745431977537E+01 -1.741350344432E+01 -1.736879939613E+01
 -1.732017241159E+01 -1.726759015198E+01 -1.721102310247E+01 -1.715044450241E+01
 -1.708583026445E+01 -1.701715888454E+01 -1.694441134602E+01 -1.686757102137E+01
 -1.678662357647E+01 -1.670155688320E+01 -1.661236094724E+01 -1.651902785935E+01
 -1.642155178007E+01 -1.631992896892E+01 -1.621415787123E+01 -1.610423927728E+01
 -1.599017657041E+01 -1.587197608236E+01 -1.574964757617E+01 -1.562320487844E+01
 -1.549266668434E+01 -1.535805755996E+01 -1.521940916747E+01 -1.507676173861E+01
 -1.493016582180E+01 -1.477968432657E+01 -1.462539488670E+01 -1.446739255927E+01
 -1.430579287173E+01 -1.414073522121E+01 -1.397238662114E+01 -1.380094577772E+01
 -1.362664746458E+01 -1.344976714567E+01 -1.327062577657E+01 -1.308959469008E+01
 -1.290710044632E+01 -1.272362949849E+01 -1.253973249573E+01 -1.235602801367E+01
 -1.217320547408E+01 -1.199202698883E+01 -1.181332784261E+01 -1.163801531723E+01