<?xml version="1.0" encoding="UTF-8" ?>
<psml version="1.1" energy_unit="hartree" length_unit="bohr"
 uuid="90d1c110-23d2-11e8-7bc5-e92f9d7fb4d7"
 xmlns="http://esl.cecam.org/PSML/ns/1.1">
<provenance creator="ONCVPSP-3.3.0+psml-3.3.0-73 (scalar-relativistic)"
 date="2018-03-09">
<annotation action="semilocal-pseudopotential-generation"
 action-cont="projectors-generation" />
<input-file name="oncvpsp-input">
<![CDATA[# atsym z nc nv iexc psfile
Cu 29 3 4 -001012 upf
# n l f
1 0 2.0
2 0 2.0
2 1 6.0
3 0 2.0
3 1 6.0
3 2 10.0
4 0 1.0
# lmax
2
# l rc ep ncon nbas qcut
0 1.25 0.0 4 8 9.0
1 1.45 0.0 4 8 9.5
2 1.75 0.0 4 7 9.5
# lloc lpopt rc5 dvloc0
4 5 1.2 0.0
# l nproj debl
0 2 1.5
1 2 1.5
2 2 2.0
# icmod fcfact rcfact
3 3.5 1.65
# epsh1 epsh2 depsh
-12.0 12.0 0.02
# rlmax drl
6.0 0.01
 0
]]>
</input-file>
</provenance>
<pseudo-atom-spec atomic-label="Cu" atomic-number="29" z-pseudo="19"
 flavor="Hamann&apos;s oncvpsp" relativity="scalar" spin-dft="no"
 core-corrections="yes">
<annotation pseudo-energy="-185.385097946" />
<exchange-correlation>
<annotation oncvpsp-xc-code="-1012" oncvpsp-xc-type="libxc-interface" />
<libxc-info number-of-functionals="2">
<functional name="Slater exchange (LDA)" type="exchange" id="1" />
<functional name="Perdew &amp; Wang (LDA)" type="correlation" id="12" />
</libxc-info>
</exchange-correlation>
<valence-configuration total-valence-charge="19">
<shell n="3" l="s" occupation="2" />
<shell n="3" l="p" occupation="6" />
<shell n="3" l="d" occupation="10" />
<shell n="4" l="s" occupation="1" />
</valence-configuration>
</pseudo-atom-spec>
<grid npts="457">
<annotation type="sampled from oncvpsp log grid"
 recipe="r(i:1..N) = r1*exp(a*(i-1)) + r=0; resampled"
 recipe-cont="r1: scale; a: step" scale="0.172413793103E-04"
 step="0.119285708653E-01" delta="0.500000000000E-02" rmax="44.1434196577" />
<grid-data>
  0.000000000000E+00  5.040759278960E-03  1.006852107514E-02  1.510438714353E-02
  2.011108069843E-02  2.522697322451E-02  3.053186590510E-02  3.565332260536E-02
  4.114017728858E-02  4.635229949226E-02  5.160548885826E-02  5.677275850950E-02
  6.245742807768E-02  6.789654638074E-02  7.293412198510E-02  7.834545986930E-02
  8.415829127808E-02  8.933043969595E-02  9.482045482488E-02  1.006478719214E-01
  1.068334268276E-01  1.120544760441E-01  1.175306828056E-01  1.232745168994E-01
  1.292990575229E-01  1.356180230659E-01  1.422458023490E-01  1.474283472209E-01
  1.527997115230E-01  1.583667746511E-01  1.641366666430E-01  1.701167773103E-01
  1.763147657031E-01  1.827385699191E-01  1.893964172706E-01  1.962968348216E-01
  2.034486603088E-01  2.108610534604E-01  2.159520827352E-01  2.211660298207E-01
  2.265058624447E-01  2.319746199876E-01  2.375754152126E-01  2.433114360375E-01
  2.491859473491E-01  2.552022928619E-01  2.613638970208E-01  2.676742669505E-01
  2.741369944517E-01  2.807557580458E-01  2.875343250680E-01  2.944765538125E-01
  3.015863957277E-01  3.088678976662E-01  3.163252041874E-01  3.239625599173E-01
  3.317843119640E-01  3.397949123920E-01  3.479989207568E-01  3.564010066996E-01
  3.650059526053E-01  3.738186563250E-01  3.828441339633E-01  3.920875227337E-01
  4.015540838826E-01  4.112492056839E-01  4.211784065059E-01  4.262325473840E-01
  4.313473379526E-01  4.365235060080E-01  4.417617880801E-01  4.470629295371E-01
  4.524276846915E-01  4.578568169078E-01  4.633510987107E-01  4.689113118952E-01
  4.745382476380E-01  4.802327066096E-01  4.859954990890E-01  4.918274450780E-01
  4.977293744190E-01  5.037021269120E-01  5.097465524349E-01  5.158635110642E-01
  5.220538731969E-01  5.283185196753E-01  5.346583419114E-01  5.410742420143E-01
  5.475671329185E-01  5.541379385135E-01  5.607875937757E-01  5.675170449010E-01
  5.743272494398E-01  5.812191764331E-01  5.881938065503E-01  5.952521322289E-01
  6.023951578156E-01  6.096238997094E-01  6.169393865059E-01  6.243426591440E-01
  6.318347710537E-01  6.394167883064E-01  6.470897897661E-01  6.548548672432E-01
  6.627131256502E-01  6.706656831580E-01  6.787136713559E-01  6.868582354121E-01
  6.951005342371E-01  7.034417406479E-01  7.118830415357E-01  7.204256380341E-01
  7.290707456905E-01  7.378195946388E-01  7.466734297745E-01  7.556335109318E-01
  7.647011130630E-01  7.738775264197E-01  7.831640567368E-01  7.925620254176E-01
  8.020727697226E-01  8.116976429593E-01  8.214380146748E-01  8.312952708509E-01
  8.412708141011E-01  8.513660638703E-01  8.615824566368E-01  8.719214461164E-01
  8.823845034698E-01  8.929731175114E-01  9.036887949216E-01  9.145330604606E-01
  9.255074571862E-01  9.366135466724E-01  9.478529092325E-01  9.592271441432E-01
  9.707378698730E-01  9.823867243114E-01  9.941753650032E-01  1.006105469383E+00
  1.018178735016E+00  1.030396879836E+00  1.042761642394E+00  1.055274782103E+00
  1.067938079488E+00  1.080753336442E+00  1.093722376479E+00  1.106847044997E+00
  1.120129209537E+00  1.133570760051E+00  1.147173609172E+00  1.160939692482E+00
  1.174870968792E+00  1.188969420417E+00  1.203237053462E+00  1.217675898104E+00
  1.232288008881E+00  1.247075464988E+00  1.262040370567E+00  1.277184855014E+00
  1.292511073274E+00  1.308021206154E+00  1.323717460628E+00  1.339602070155E+00
  1.355677294997E+00  1.371945422537E+00  1.388408767607E+00  1.405069672819E+00
  1.421930508893E+00  1.438993674999E+00  1.456261599099E+00  1.473736738288E+00
  1.491421579148E+00  1.509318638098E+00  1.527430461755E+00  1.545759627296E+00
  1.564308742823E+00  1.583080447737E+00  1.602077413110E+00  1.621302342067E+00
  1.640757970172E+00  1.660447065814E+00  1.680372430604E+00  1.700536899771E+00
  1.720943342569E+00  1.741594662679E+00  1.762493798632E+00  1.783643724215E+00
  1.805047448906E+00  1.826708018293E+00  1.848628514512E+00  1.870812056686E+00
  1.893261801367E+00  1.915980942983E+00  1.938972714299E+00  1.962240386870E+00
  1.985787271513E+00  2.009616718771E+00  2.033732119396E+00  2.058136904829E+00
  2.082834547687E+00  2.107828562259E+00  2.133122505006E+00  2.158719975066E+00
  2.184624614767E+00  2.210840110144E+00  2.237370191466E+00  2.264218633764E+00
  2.291389257369E+00  2.318885928457E+00  2.346712559599E+00  2.374873110314E+00
  2.403371587638E+00  2.432212046689E+00  2.461398591250E+00  2.490935374345E+00
  2.520826598837E+00  2.551076518023E+00  2.581689436239E+00  2.612669709474E+00
  2.644021745988E+00  2.675750006939E+00  2.707859007023E+00  2.740353315107E+00
  2.773237554888E+00  2.806516405547E+00  2.840194602413E+00  2.874276937642E+00
  2.908768260894E+00  2.943673480025E+00  2.978997561785E+00  3.014745532527E+00
  3.050922478917E+00  3.087533548664E+00  3.124583951248E+00  3.162078958663E+00
  3.200023906167E+00  3.238424193041E+00  3.277285283357E+00  3.316612706758E+00
  3.356412059239E+00  3.396689003950E+00  3.437449271997E+00  3.478698663261E+00
  3.520443047220E+00  3.562688363787E+00  3.605440624152E+00  3.648705911642E+00
  3.692490382582E+00  3.736800267173E+00  3.781641870379E+00  3.827021572823E+00
  3.872945831697E+00  3.919421181678E+00  3.966454235858E+00  4.014051686688E+00
  4.062220306928E+00  4.110966950611E+00  4.160298554019E+00  4.210222136667E+00
  4.260744802307E+00  4.311873739935E+00  4.363616224814E+00  4.415979619512E+00
  4.468971374946E+00  4.522599031445E+00  4.576870219822E+00  4.631792662460E+00
  4.687374174410E+00  4.743622664503E+00  4.800546136477E+00  4.858152690114E+00
  4.916450522396E+00  4.975447928665E+00  5.035153303809E+00  5.095575143454E+00
  5.156722045176E+00  5.218602709718E+00  5.281225942234E+00  5.344600653541E+00
  5.408735861384E+00  5.473640691720E+00  5.539324380021E+00  5.605796272581E+00
  5.673065827852E+00  5.741142617786E+00  5.810036329200E+00  5.879756765150E+00
  5.950313846332E+00  6.021717612488E+00  6.093978223838E+00  6.167105962524E+00
  6.241111234074E+00  6.316004568883E+00  6.391796623710E+00  6.468498183194E+00
  6.546120161393E+00  6.624673603329E+00  6.704169686569E+00  6.784619722808E+00
  6.866035159482E+00  6.948427581396E+00  7.031808712372E+00  7.116190416921E+00
  7.201584701924E+00  7.288003718347E+00  7.375459762967E+00  7.463965280123E+00
  7.553532863484E+00  7.644175257846E+00  7.735905360940E+00  7.828736225271E+00
  7.922681059975E+00  8.017753232694E+00  8.113966271487E+00  8.211333866745E+00
  8.309869873145E+00  8.409588311623E+00  8.510503371363E+00  8.612629411819E+00
  8.715980964761E+00  8.820572736338E+00  8.926419609174E+00  9.033536644484E+00
  9.141939084218E+00  9.251642353229E+00  9.362662061467E+00  9.475014006205E+00
  9.588714174279E+00  9.703778744371E+00  9.820224089303E+00  9.938066778375E+00
  1.005732357972E+01  1.017801146267E+01  1.030014760022E+01  1.042374937143E+01
  1.054883436388E+01  1.067542037625E+01  1.080352542077E+01  1.093316772581E+01
  1.106436573852E+01  1.119713812739E+01  1.133150378492E+01  1.146748183033E+01
  1.160509161230E+01  1.174435271165E+01  1.188528494419E+01  1.202790836352E+01
  1.217224326388E+01  1.231831018304E+01  1.246612990524E+01  1.261572346410E+01
  1.276711214567E+01  1.292031749142E+01  1.307536130132E+01  1.323226563693E+01
  1.339105282458E+01  1.355174545847E+01  1.371436640397E+01  1.387893880082E+01
  1.404548606643E+01  1.421403189923E+01  1.438460028202E+01  1.455721548540E+01
  1.473190207123E+01  1.490868489608E+01  1.508758911484E+01  1.526864018421E+01
  1.545186386642E+01  1.563728623282E+01  1.582493366762E+01  1.601483287163E+01
  1.620701086609E+01  1.640149499648E+01  1.659831293644E+01  1.679749269167E+01
  1.699906260397E+01  1.720305135522E+01  1.740948797149E+01  1.761840182714E+01
  1.782982264907E+01  1.804378052086E+01  1.826030588711E+01  1.847942955775E+01
  1.870118271245E+01  1.892559690500E+01  1.915270406786E+01  1.938253651667E+01
  1.961512695487E+01  1.985050847833E+01  2.008871458007E+01  2.032977915503E+01
  2.057373650489E+01  2.082062134295E+01  2.107046879906E+01  2.132331442465E+01
  2.157919419775E+01  2.183814452812E+01  2.210020226246E+01  2.236540468961E+01
  2.263378954588E+01  2.290539502043E+01  2.318025976068E+01  2.345842287781E+01
  2.373992395234E+01  2.402480303977E+01  2.431310067625E+01  2.460485788436E+01
  2.490011617897E+01  2.519891757312E+01  2.550130458400E+01  2.580732023901E+01
  2.611700808187E+01  2.643041217886E+01  2.674757712500E+01  2.706854805050E+01
  2.739337062711E+01  2.772209107463E+01  2.805475616753E+01  2.839141324154E+01
  2.873211020044E+01  2.907689552284E+01  2.942581826912E+01  2.977892808835E+01
  3.013627522541E+01  3.049791052811E+01  3.086388545445E+01  3.123425207990E+01
  3.160906310486E+01  3.198837186212E+01  3.237223232447E+01  3.276069911236E+01
  3.315382750171E+01  3.355167343173E+01  3.395429351291E+01  3.436174503506E+01
  3.477408597549E+01  3.519137500719E+01  3.561367150728E+01  3.604103556537E+01
  3.647352799215E+01  3.691121032806E+01  3.735414485199E+01  3.780239459022E+01
  3.825602332530E+01  3.871509560520E+01  3.917967675246E+01  3.964983287349E+01
  4.012563086798E+01  4.060713843839E+01  4.109442409965E+01  4.158755718885E+01
  4.208660787511E+01  4.259164716962E+01  4.310274693565E+01  4.361997989888E+01
  4.414341965767E+01
</grid-data>
</grid>
<valence-charge total-charge="19" is-unscreening-charge="yes"
 rescaled-to-z-pseudo="no">
<radfunc>
<data npts="457">
  2.037237248120E+01  2.038063472378E+01  2.040532857114E+01  2.044651071824E+01
  2.050373547976E+01  2.057892237699E+01  2.067465226034E+01  2.078414062606E+01
  2.091992508078E+01  2.106648615182E+01  2.123137847502E+01  2.141023534627E+01
  2.162587899540E+01  2.185049330236E+01  2.207426031422E+01  2.233124224784E+01
  2.262614976468E+01  2.290468513874E+01  2.321663954328E+01  2.356575057159E+01
  2.395609876429E+01  2.430103518135E+01  2.467762727757E+01  2.508845209077E+01
  2.553622460712E+01  2.602378783741E+01  2.655409741594E+01  2.698171169087E+01
  2.743639184239E+01  2.791945664972E+01  2.843222339104E+01  2.897599407027E+01
  2.955203891079E+01  3.016157674323E+01  3.080575188240E+01  3.148560705840E+01
  3.220205194015E+01  3.295582676940E+01  3.347935353493E+01  3.401980684195E+01
  3.457722373231E+01  3.515157574509E+01  3.574276076848E+01  3.635059426439E+01
  3.697479984978E+01  3.761499922469E+01  3.827070144375E+01  3.894129153705E+01
  3.962601849655E+01  4.032398265730E+01  4.103412251779E+01  4.175520106162E+01
  4.248579166366E+01  4.322426368786E+01  4.396876791127E+01  4.471722194031E+01
  4.546729582015E+01  4.621639807728E+01  4.696166247826E+01  4.769993583452E+01
  4.842776723342E+01  4.914139912935E+01  4.983676078423E+01  5.050946460395E+01
  5.115480597399E+01  5.176776725221E+01  5.234302662760E+01  5.261477529933E+01
  5.287497259645E+01  5.312287523949E+01  5.335772484067E+01  5.357874896293E+01
  5.378516231030E+01  5.397616805559E+01  5.415095931124E+01  5.430872074889E+01
  5.444863037271E+01  5.456986145135E+01  5.467158461261E+01  5.475297010444E+01
  5.481319022516E+01  5.485142192486E+01  5.486684957904E+01  5.485866793466E+01
  5.482608522728E+01  5.476832646689E+01  5.468463688859E+01  5.457428556255E+01
  5.443656915619E+01  5.427081583948E+01  5.407638932260E+01  5.385269301266E+01
  5.359917427458E+01  5.331532877836E+01  5.300070491300E+01  5.265490824465E+01
  5.227760599401E+01  5.186853150564E+01  5.142748867909E+01  5.095435632916E+01
  5.044909244032E+01  4.991173827761E+01  4.934242231434E+01  4.874136393448E+01
  4.810887686607E+01  4.744537230008E+01  4.675136164802E+01  4.602745889064E+01
  4.527438246969E+01  4.449295667457E+01  4.368411247658E+01  4.284888776455E+01
  4.198842693764E+01  4.110397981363E+01  4.019689981483E+01  3.926864139754E+01
  3.832075669652E+01  3.735489136169E+01  3.637277957135E+01  3.537623821382E+01
  3.436716023808E+01  3.334750718339E+01  3.231930090797E+01  3.128461454765E+01
  3.024556274658E+01  2.920429121388E+01  2.816296567192E+01  2.712376027391E+01
  2.608884558020E+01  2.506037619382E+01  2.404047816683E+01  2.303123629834E+01
  2.203468145381E+01  2.105277804206E+01  2.008741179187E+01  1.914037797297E+01
  1.821337020737E+01  1.730797001528E+01  1.642563723589E+01  1.556770145585E+01
  1.473535456919E+01  1.392964457916E+01  1.315147073747E+01  1.240158009855E+01
  1.168056554609E+01  1.098886532698E+01  1.032676410415E+01  9.694395514891E+00
  9.091746196037E+00  8.518661212153E+00  7.974850798566E+00  7.459898308029E+00
  6.973269228961E+00  6.514321125059E+00  6.082314331191E+00  5.676423229327E+00
  5.295747921259E+00  4.939326112071E+00  4.606145020095E+00  4.295153368089E+00
  4.005273908961E+00  3.735415770043E+00  3.484484129056E+00  3.251389217950E+00
  3.035054476433E+00  2.834423841289E+00  2.648468117984E+00  2.476190418175E+00
  2.316630665948E+00  2.168869196079E+00  2.032029485602E+00  1.905279729676E+00
  1.787832432778E+00  1.678943032788E+00  1.577911174365E+00  1.484081430125E+00
  1.396843606249E+00  1.315632648654E+00  1.239928194102E+00  1.169253806678E+00
  1.103175935737E+00  1.041302627325E+00  9.832820170519E-01  9.288006288603E-01
  8.775815008349E-01  8.293821562447E-01  7.839924353092E-01  7.412309824809E-01
  7.009368992052E-01  6.629589634085E-01  6.271551905176E-01  5.933922713446E-01
  5.615451118640E-01  5.314963878532E-01  5.031361149763E-01  4.763612347484E-01
  4.510752166818E-01  4.271876767976E-01  4.046140125718E-01  3.832750542911E-01
  3.630967327020E-01  3.440097627594E-01  3.259493432148E-01  3.088548717200E-01
  2.926696750782E-01  2.773407542230E-01  2.628185434799E-01  2.490566836265E-01
  2.360118082533E-01  2.236433429054E-01  2.119133164762E-01  2.007861843166E-01
  1.902286625208E-01  1.802095728521E-01  1.706996977751E-01  1.616716450696E-01
  1.530997215100E-01  1.449598151085E-01  1.372292854309E-01  1.298868615130E-01
  1.229125469185E-01  1.162875314999E-01  1.099941094389E-01  1.040156031656E-01
  9.833629276848E-02  9.294135053349E-02  8.781678026218E-02  8.294936104291E-02
  7.832659516438E-02  7.393665987973E-02  6.976836274669E-02  6.581110028606E-02
  6.205481971695E-02  5.848998354294E-02  5.510753677792E-02  5.189887661492E-02
  4.885582435425E-02  4.597059942045E-02  4.323579530922E-02  4.064435731708E-02
  3.818956191701E-02  3.586499765334E-02  3.366454743845E-02  3.158237214260E-02
  2.961289537631E-02  2.775078937208E-02  2.599096187959E-02  2.432854399429E-02
  2.275887884758E-02  2.127751108720E-02  1.988017708848E-02  1.856279583646E-02
  1.732146042582E-02  1.615243012880E-02  1.505212298538E-02  1.401710887325E-02
  1.304410301858E-02  1.212995991126E-02  1.127166759115E-02  1.046634227467E-02
  9.711223292946E-03  9.003668315443E-03  8.341148834627E-03  7.721245889427E-03
  7.141646006851E-03  6.600137342844E-03  6.094606005030E-03  5.623032541392E-03
  5.183488580357E-03  4.774133608978E-03  4.393211877129E-03  4.039049416752E-03
  3.710051166217E-03  3.404698190885E-03  3.121544991851E-03  2.859216895726E-03
  2.616407519127E-03  2.391876302284E-03  2.184446106899E-03  1.993000874002E-03
  1.816483338212E-03  1.653892795292E-03  1.504282920463E-03  1.366759635365E-03
  1.240479021981E-03  1.124645282231E-03  1.018508742267E-03  9.213639008042E-04
  8.325475210784E-04  7.514367662565E-04  6.774473782956E-04  6.100319004198E-04
  5.486779434977E-04  4.929064967006E-04  4.422702828887E-04  3.963521592099E-04
  3.547635634173E-04  3.171430064001E-04  2.831546114022E-04  2.524867003574E-04
  2.248504277121E-04  1.999784620340E-04  1.776237156213E-04  1.575581222358E-04
  1.395714629779E-04  1.234702402205E-04  1.090765994052E-04  9.622729839225E-05
  8.477272394377E-05  7.457595480709E-05  6.551187075618E-05  5.746630684247E-05
  5.033525200583E-05  4.402409110075E-05  3.844688930401E-05  3.352571778816E-05
  2.919001947178E-05  2.537601359154E-05  2.202613778412E-05  1.908852631810E-05
  1.651652307593E-05  1.426822785606E-05  1.230607454267E-05  1.059643967720E-05
  9.109279960205E-06  7.817797214294E-06  6.698129347908E-06  5.729065876842E-06
  4.891786697608E-06  4.169621215512E-06  3.547837324033E-06  3.013412496465E-06
  2.554912435003E-06  2.162280975813E-06  1.826669442552E-06  1.540321727341E-06
  1.296457763927E-06  1.089161966535E-06  9.132829062442E-07  7.643432835406E-07
  6.384593121189E-07  5.322686845200E-07  4.428663446076E-07  3.677473448568E-07
  3.047561177754E-07  2.520415402955E-07  2.080172175012E-07  1.713264574885E-07
  1.408114523722E-07  1.154862214132E-07  9.451291089430E-08  7.718108170770E-08
  6.288964964388E-08  5.113117511698E-08  4.147822856723E-08  3.357158510932E-08
  2.711002721548E-08  2.184155741581E-08  1.755584425562E-08  1.407774416527E-08
  1.126175957289E-08  8.987309626211E-09  7.154704391554E-09  5.681726468925E-09
  4.500735705564E-09  3.556223206854E-09  2.802750231120E-09  2.203215908004E-09
  1.727405129086E-09  1.350774510054E-09  1.053440097108E-09  8.193355624909E-10
  6.355140761600E-10  4.915709185169E-10  3.791672738396E-10  2.916385714661E-10
  2.236732731817E-10  1.710501870275E-10  1.304242664454E-10  9.915242950942E-11
  7.191648977824E-11  5.438628905176E-11  4.100266952860E-11  3.081633420907E-11
  2.308767065592E-11  1.724223319070E-11  1.283526680382E-11  9.523526609876E-12
  7.042964760765E-12  5.191120771276E-12  3.813269634543E-12  2.791562155862E-12
  2.036539830672E-12  1.480527645837E-12  1.072506909947E-12  7.741504452157E-13
  5.567674296817E-13  3.989575771989E-13  2.848164551336E-13  2.025674583535E-13
  1.435228541799E-13  1.012976851590E-13  7.121723396064E-14  4.987209393993E-14
  3.478536547484E-14  2.416469384933E-14  1.671825012772E-14  1.151871176747E-14
  7.903129338591E-15  5.399513157741E-15  3.673232659032E-15  2.488045405396E-15
  1.677882859889E-15  1.126511445236E-15  7.529343298354E-16  5.009596103798E-16
  3.317789026747E-16  2.187113345225E-16  1.434980578022E-16  9.370190222981E-17
  6.089106771143E-17  3.937643668056E-17  2.533794660068E-17  1.622306214178E-17
  1.033462153601E-17  6.549833426175E-18  4.129649093930E-18  2.590098152056E-18
  1.615891154878E-18  1.002704806132E-18  6.188297243839E-19  3.798200937479E-19
  2.318273581495E-19  1.407026701375E-19  8.491051181288E-20  5.094625131802E-20
  3.038956334778E-20  1.802052691872E-20  1.062210344628E-20  0.000000000000E+00
  0.000000000000E+00  0.000000000000E+00  0.000000000000E+00  0.000000000000E+00
  0.000000000000E+00  0.000000000000E+00  0.000000000000E+00  0.000000000000E+00
  0.000000000000E+00  0.000000000000E+00  0.000000000000E+00  0.000000000000E+00
  0.000000000000E+00  0.000000000000E+00  0.000000000000E+00  0.000000000000E+00
  0.000000000000E+00
</data>
</radfunc>
</valence-charge>
<pseudocore-charge matching-radius="0.373818656325"
 number-of-continuous-derivatives="4">
<annotation model-charge-form="Teter function with specified parameters" />
<radfunc>
<data npts="290">
  1.845408000964E+02  1.845018627677E+02  1.843854979965E+02  1.841914682855E+02
  1.839219220467E+02  1.835678892207E+02  1.831173235391E+02  1.826022731763E+02
  1.819639235807E+02  1.812754090164E+02  1.805013944977E+02  1.796625657266E+02
  1.786522244740E+02  1.776010298123E+02  1.765549893256E+02  1.753551372763E+02
  1.739801216364E+02  1.726833078426E+02  1.712330408201E+02  1.696126985654E+02
  1.678042699819E+02  1.662091135410E+02  1.644706322821E+02  1.625777405428E+02
  1.605188709291E+02  1.582820398390E+02  1.558549378342E+02  1.539022208619E+02
  1.518301303443E+02  1.496333864821E+02  1.473067897776E+02  1.448452824228E+02
  1.422440191443E+02  1.394984482392E+02  1.366044034718E+02  1.335582073930E+02
  1.303567864791E+02  1.269977982707E+02  1.246701680420E+02  1.222716417480E+02
  1.198022509613E+02  1.172622714412E+02  1.146522456791E+02  1.119730060301E+02
  1.092256982601E+02  1.064118052996E+02  1.035331709595E+02  1.005920233165E+02
  9.759099743660E+01  9.453315705351E+01  9.142201476910E+01  8.826155029448E+01
  8.505622619713E+01  8.181100057045E+01  7.853133599486E+01  7.522320411674E+01
  7.189308513623E+01  6.854796146779E+01  6.519530482401E+01  6.184305597455E+01
  5.849959645265E+01  5.517371152559E+01  5.187454381595E+01  4.861153706212E+01
  4.539436964244E+01  4.223287766153E+01  3.913696761232E+01  3.761669704589E+01
  3.611651888440E+01  3.463764624670E+01  3.318127668963E+01  3.174858840581E+01
  3.034073631738E+01  2.895884807972E+01  2.760402001108E+01  2.627731296553E+01
  2.497974816852E+01  2.371230303613E+01  2.247590700065E+01  2.127143736692E+01
  2.009971522536E+01  1.896150144931E+01  1.785749280548E+01  1.678831820772E+01
  1.575453514533E+01  1.475662631802E+01  1.379499651035E+01  1.286996973872E+01
  1.198178670411E+01  1.113060258363E+01  1.031648519318E+01  9.539413552551E+00
  8.799276882907E+00  8.095874064775E+00  7.428913582172E+00  6.798013975876E+00
  6.202704825455E+00  5.642428275901E+00  5.116541120432E+00  4.624317446335E+00
  4.164951845351E+00  3.737563184745E+00  3.341198928880E+00  2.974839994998E+00
  2.637406120210E+00  2.327761709914E+00  2.044722130966E+00  1.787060406056E+00
  1.553514258948E+00  1.342793453701E+00  1.153587364824E+00  9.845727096388E-01
  8.344213690720E-01  7.018082188895E-01  5.854188900250E-01  4.839573744271E-01
  3.961533917703E-01  3.207694326247E-01  2.566073953229E-01  2.025147368975E-01
  1.573900631197E-01  1.201880888841E-01  8.992390792885E-02  6.567652010912E-02
  4.659157505185E-02  3.188330287734E-02  2.083561559314E-02  1.280237652150E-02
  7.206849444508E-03  3.540353735086E-03  1.360166246996E-03  2.867247987719E-04
  2.013236387975E-07  2.365247832762E-04  7.829443778031E-04  1.473232067955E-03
  2.182629633387E-03  2.822649148330E-03  3.335836651799E-03  3.690606791610E-03
  3.876251287305E-03  3.898216244085E-03  3.773732821852E-03  3.527872792757E-03
  3.190085486338E-03  2.791256001328E-03  2.361306922204E-03  1.927347748956E-03
  1.512358507773E-03  1.134377252033E-03  8.061460656588E-04  5.351573740423E-04
  3.240323966101E-04  1.711568683903E-04  7.149599733370E-05  1.751112106098E-05
  1.046062622541E-07  9.526929189222E-06  3.619013312292E-05  7.134435640094E-05
  1.075881024511E-04  1.391975250470E-04  1.622743270034E-04  1.747250322939E-04
  1.760955795966E-04  1.672937252586E-04  1.502371514897E-04  1.274671995752E-04
  1.017667951215E-04  7.581667490854E-05  5.191698390368E-05  3.179241770872E-05
  1.648922165826E-05  6.362477575543E-06  1.143152367960E-06  6.718270560522E-08
  2.044069751064E-06  5.840440667432E-06  1.025487948328E-05  1.426380331773E-05
  1.712373305018E-05  1.842221839991E-05  1.807701935140E-05  1.628997799000E-05
  1.346748126253E-05  1.012285784897E-05  6.777100945533E-06  3.872934135411E-06
  1.713757922967E-06  4.340510170815E-07  2.184963531040E-09  0.000000000000E+00
  0.000000000000E+00  0.000000000000E+00  0.000000000000E+00  0.000000000000E+00
  0.000000000000E+00  0.000000000000E+00  0.000000000000E+00  0.000000000000E+00
  0.000000000000E+00  0.000000000000E+00  0.000000000000E+00  0.000000000000E+00
  0.000000000000E+00  0.000000000000E+00  0.000000000000E+00  0.000000000000E+00
  0.000000000000E+00  0.000000000000E+00  0.000000000000E+00  0.000000000000E+00
  0.000000000000E+00  0.000000000000E+00  0.000000000000E+00  0.000000000000E+00
  0.000000000000E+00  0.000000000000E+00  0.000000000000E+00  0.000000000000E+00
  0.000000000000E+00  0.000000000000E+00  0.000000000000E+00  0.000000000000E+00
  0.000000000000E+00  0.000000000000E+00  0.000000000000E+00  0.000000000000E+00
  0.000000000000E+00  0.000000000000E+00  0.000000000000E+00  0.000000000000E+00
  0.000000000000E+00  0.000000000000E+00  0.000000000000E+00  0.000000000000E+00
  0.000000000000E+00  0.000000000000E+00  0.000000000000E+00  0.000000000000E+00
  0.000000000000E+00  0.000000000000E+00  0.000000000000E+00  0.000000000000E+00
  0.000000000000E+00  0.000000000000E+00  0.000000000000E+00  0.000000000000E+00
  0.000000000000E+00  0.000000000000E+00  0.000000000000E+00  0.000000000000E+00
  0.000000000000E+00  0.000000000000E+00  0.000000000000E+00  0.000000000000E+00
  0.000000000000E+00  0.000000000000E+00  0.000000000000E+00  0.000000000000E+00
  0.000000000000E+00  0.000000000000E+00  0.000000000000E+00  0.000000000000E+00
  0.000000000000E+00  0.000000000000E+00  0.000000000000E+00  0.000000000000E+00
  0.000000000000E+00  0.000000000000E+00  0.000000000000E+00  0.000000000000E+00
  0.000000000000E+00  0.000000000000E+00  0.000000000000E+00  0.000000000000E+00
  0.000000000000E+00  0.000000000000E+00  0.000000000000E+00  0.000000000000E+00
  0.000000000000E+00  0.000000000000E+00  0.000000000000E+00  0.000000000000E+00
  0.000000000000E+00  0.000000000000E+00  0.000000000000E+00  0.000000000000E+00
  0.000000000000E+00  0.000000000000E+00
</data>
</radfunc>
</pseudocore-charge>
<semilocal-potentials set="scalar_relativistic">
<slps n="3" l="s" rc="1.26204037057" eref="-4.19494863443">
<radfunc>
<data npts="290">
 -2.915807405837E+01 -2.915811194733E+01 -2.915822490550E+01 -2.915841278295E+01
 -2.915867283656E+01 -2.915901272767E+01 -2.915944253054E+01 -2.915993002212E+01
 -2.916052849662E+01 -2.916116682362E+01 -2.916187540412E+01 -2.916263238894E+01
 -2.916352880496E+01 -2.916444333731E+01 -2.916533466749E+01 -2.916633358355E+01
 -2.916744676863E+01 -2.916846498983E+01 -2.916956633836E+01 -2.917074887441E+01
 -2.917200700961E+01 -2.917306101862E+01 -2.917414823244E+01 -2.917525658894E+01
 -2.917636953535E+01 -2.917746487759E+01 -2.917851336581E+01 -2.917924648771E+01
 -2.917991211400E+01 -2.918048623746E+01 -2.918094011285E+01 -2.918123945016E+01
 -2.918134348047E+01 -2.918120387549E+01 -2.918076350027E+01 -2.917995497543E+01
 -2.917869902335E+01 -2.917690257001E+01 -2.917535153707E+01 -2.917347544327E+01
 -2.917123353379E+01 -2.916858065645E+01 -2.916546683201E+01 -2.916183678809E+01
 -2.915762945509E+01 -2.915277742183E+01 -2.914720634964E+01 -2.914083434334E+01
 -2.913357127816E+01 -2.912531808215E+01 -2.911596597431E+01 -2.910539565922E+01
 -2.909347648029E+01 -2.908006553474E+01 -2.906500675466E+01 -2.904812996066E+01
 -2.902924989591E+01 -2.900816525107E+01 -2.898465769287E+01 -2.895849091183E+01
 -2.892940970758E+01 -2.889713913365E+01 -2.886138372656E+01 -2.882182684778E+01
 -2.877813017010E+01 -2.872993334334E+01 -2.867685387670E+01 -2.864835759916E+01
 -2.861848727727E+01 -2.858718898290E+01 -2.855440748531E+01 -2.852008628391E+01
 -2.848416764711E+01 -2.844659265768E+01 -2.840730126486E+01 -2.836623234350E+01
 -2.832332376026E+01 -2.827851244739E+01 -2.823173448390E+01 -2.818292518448E+01
 -2.813201919612E+01 -2.807895060251E+01 -2.802365303619E+01 -2.796605979835E+01
 -2.790610398620E+01 -2.784371862763E+01 -2.777883682298E+01 -2.771139189349E+01
 -2.764131753611E+01 -2.756854798408E+01 -2.749301817270E+01 -2.741466390969E+01
 -2.733342204923E+01 -2.724923066888E+01 -2.716202924835E+01 -2.707175884894E+01
 -2.697836229259E+01 -2.688178433887E+01 -2.678197185873E+01 -2.667887400319E+01
 -2.657244236519E+01 -2.646263113282E+01 -2.634939723188E+01 -2.623270045552E+01
 -2.611250357892E+01 -2.598877245661E+01 -2.586147610003E+01 -2.573058673320E+01
 -2.559607982399E+01 -2.545793408899E+01 -2.531613146993E+01 -2.517065707998E+01
 -2.502149911875E+01 -2.486864875511E+01 -2.471209997785E+01 -2.455184941504E+01
 -2.438789612382E+01 -2.422024135382E+01 -2.404888828879E+01 -2.387384177279E+01
 -2.369510802941E+01 -2.351269438464E+01 -2.332660900683E+01 -2.313686067993E+01
 -2.294345862948E+01 -2.274641242447E+01 -2.254573198168E+01 -2.234142770324E+01
 -2.213351078239E+01 -2.192199371625E+01 -2.170689106889E+01 -2.148822053161E+01
 -2.126600433105E+01 -2.104027103841E+01 -2.081105783524E+01 -2.057841329176E+01
 -2.034240071288E+01 -2.010310210409E+01 -1.986062280358E+01 -1.961509681855E+01
 -1.936669289071E+01 -1.911562129946E+01 -1.886214138903E+01 -1.860656977862E+01
 -1.834928918087E+01 -1.809075771447E+01 -1.783151855083E+01 -1.757220968330E+01
 -1.731357355165E+01 -1.705646619656E+01 -1.680186556163E+01 -1.655087850809E+01
 -1.630474606644E+01 -1.606484642610E+01 -1.583269516805E+01 -1.560994228643E+01