<?xml version="1.0" encoding="UTF-8" ?>
<psml version="1.1" energy_unit="hartree" length_unit="bohr"
 uuid="88f03cb0-23d2-11e8-5798-e71cd93fb70a"
 xmlns="http://esl.cecam.org/PSML/ns/1.1">
<provenance creator="ONCVPSP-3.3.0+psml-3.3.0-73 (scalar-relativistic)"
 date="2018-03-09">
<annotation action="semilocal-pseudopotential-generation"
 action-cont="projectors-generation" />
<input-file name="oncvpsp-input">
<![CDATA[# atsym z nc nv iexc psfile
Fe 26 3 4 -001012 upf
# n l f
1 0 2.0
2 0 2.0
2 1 6.0
3 0 2.0
3 1 6.0
3 2 6.0
4 0 2.0
# lmax
2
# l rc ep ncon nbas qcut
0 1.25 0.0 3 7 9.4
1 1.2 0.0 3 7 9.4
2 1.55 0.0 3 7 9.4
# lloc lpopt rc5 dvloc0
4 5 1.1 0.0
# l nproj debl
0 2 1.0
1 2 0.8
2 2 0.8
# icmod fcfact rcfact
3 3.0 1.7
# epsh1 epsh2 depsh
-24.0 12.0 0.02
# rlmax drl
6.0 0.01
 0
]]>
</input-file>
</provenance>
<pseudo-atom-spec atomic-label="Fe" atomic-number="26" z-pseudo="16"
 flavor="Hamann&apos;s oncvpsp" relativity="scalar" spin-dft="no"
 core-corrections="yes">
<annotation pseudo-energy="-121.623132496" />
<exchange-correlation>
<annotation oncvpsp-xc-code="-1012" oncvpsp-xc-type="libxc-interface" />
<libxc-info number-of-functionals="2">
<functional name="Slater exchange (LDA)" type="exchange" id="1" />
<functional name="Perdew &amp; Wang (LDA)" type="correlation" id="12" />
</libxc-info>
</exchange-correlation>
<valence-configuration total-valence-charge="16">
<shell n="3" l="s" occupation="2" />
<shell n="3" l="p" occupation="6" />
<shell n="3" l="d" occupation="6" />
<shell n="4" l="s" occupation="2" />
</valence-configuration>
</pseudo-atom-spec>
<grid npts="457">
<annotation type="sampled from oncvpsp log grid"
 recipe="r(i:1..N) = r1*exp(a*(i-1)) + r=0; resampled"
 recipe-cont="r1: scale; a: step" scale="0.192307692308E-04"
 step="0.119285708653E-01" delta="0.500000000000E-02" rmax="44.2248135897" />
<grid-data>
  0.000000000000E+00  5.050053692967E-03  1.008708593772E-02  1.513223739776E-02
  2.014816255451E-02  2.527348802918E-02  3.058816214668E-02  3.571906205505E-02
  4.072730601400E-02  4.588712082187E-02  5.108759065353E-02  5.620300303659E-02
  6.183062285620E-02  6.721515569429E-02  7.306860171076E-02  7.848991730107E-02
  8.431346671058E-02  8.949515180459E-02  9.499528970881E-02  1.008334516999E-01
  1.070304118539E-01  1.122610879123E-01  1.177473919885E-01  1.235018168622E-01
  1.295374658469E-01  1.358680826271E-01  1.425080825541E-01  1.477001832717E-01
  1.530814515745E-01  1.586587795431E-01  1.644393103617E-01  1.704304474680E-01
  1.766398640339E-01  1.830755127941E-01  1.897456362307E-01  1.966587771303E-01
  2.038237895251E-01  2.112498500326E-01  2.163502664118E-01  2.215738272440E-01
  2.269235057290E-01  2.324023468513E-01  2.380134691137E-01  2.437600663120E-01
  2.496454093530E-01  2.556728481164E-01  2.618458133614E-01  2.681678186792E-01
  2.746424624934E-01  2.812734301078E-01  2.880644958043E-01  2.950195249910E-01
  3.021424764024E-01  3.094374043527E-01  3.169084610433E-01  3.245598989268E-01
  3.323960731265E-01  3.404214439160E-01  3.486405792579E-01  3.570581574035E-01
  3.656789695559E-01  3.745079225969E-01  3.835500418800E-01  3.928104740912E-01
  4.022944901776E-01  4.120074883485E-01  4.219549971472E-01  4.270184571129E-01
  4.321426785983E-01  4.373283907415E-01  4.425763314304E-01  4.478872474075E-01
  4.532618943764E-01  4.587010371089E-01  4.642054495543E-01  4.697759149489E-01
  4.754132259283E-01  4.811181846394E-01  4.868916028551E-01  4.927343020894E-01
  4.986471137144E-01  5.046308790790E-01  5.106864496280E-01  5.168146870235E-01
  5.230164632678E-01  5.292926608270E-01  5.356441727569E-01  5.420719028300E-01
  5.485767656640E-01  5.551596868519E-01  5.618216030941E-01  5.685634623313E-01
  5.753862238793E-01  5.822908585658E-01  5.892783488686E-01  5.963496890550E-01
  6.035058853237E-01  6.107479559476E-01  6.180769314189E-01  6.254938545960E-01
  6.329997808511E-01  6.405957782213E-01  6.482829275600E-01  6.560623226907E-01
  6.639350705630E-01  6.719022914097E-01  6.799651189067E-01  6.881247003335E-01
  6.963821967375E-01  7.047387830984E-01  7.131956484956E-01  7.217539962775E-01
  7.304150442328E-01  7.391800247636E-01  7.480501850608E-01  7.570267872815E-01
  7.661111087289E-01  7.753044420337E-01  7.846080953381E-01  7.940233924821E-01
  8.035516731919E-01  8.131942932702E-01  8.229526247895E-01  8.328280562869E-01
  8.428219929624E-01  8.529358568779E-01  8.631710871605E-01  8.735291402064E-01
  8.840114898889E-01  8.946196277675E-01  9.053550633007E-01  9.162193240603E-01
  9.272139559491E-01  9.383405234205E-01  9.496006097015E-01  9.609958170179E-01
  9.725277668221E-01  9.841981000240E-01  9.960084772243E-01  1.007960578951E+00
  1.020056105898E+00  1.032296779169E+00  1.044684340519E+00  1.057220552605E+00
  1.069907199237E+00  1.082746085628E+00  1.095739038655E+00  1.108887907119E+00
  1.122194562004E+00  1.135660896748E+00  1.149288827509E+00  1.163080293440E+00
  1.177037256961E+00  1.191161704044E+00  1.205455644493E+00  1.219921112227E+00
  1.234560165573E+00  1.249374887560E+00  1.264367386211E+00  1.279539794846E+00
  1.294894272384E+00  1.310433003652E+00  1.326158199696E+00  1.342072098093E+00
  1.358176963270E+00  1.374475086829E+00  1.390968787871E+00  1.407660413325E+00
  1.424552338285E+00  1.441646966345E+00  1.458946729941E+00  1.476454090700E+00
  1.494171539788E+00  1.512101598266E+00  1.530246817445E+00  1.548609779254E+00
  1.567193096605E+00  1.585999413765E+00  1.605031406730E+00  1.624291783611E+00
  1.643783285014E+00  1.663508684434E+00  1.683470788647E+00  1.703672438111E+00
  1.724116507368E+00  1.744805905457E+00  1.765743576322E+00  1.786932499238E+00
  1.808375689229E+00  1.830076197500E+00  1.852037111870E+00  1.874261557212E+00
  1.896752695899E+00  1.919513728250E+00  1.942547892989E+00  1.965858467705E+00
  1.989448769317E+00  2.013322154549E+00  2.037482020403E+00  2.061931804648E+00
  2.086674986304E+00  2.111715086140E+00  2.137055667173E+00  2.162700335179E+00
  2.188652739202E+00  2.214916572072E+00  2.241495570937E+00  2.268393517788E+00
  2.295614240002E+00  2.323161610882E+00  2.351039550212E+00  2.379252024815E+00
  2.407803049112E+00  2.436696685702E+00  2.465937045930E+00  2.495528290481E+00
  2.525474629967E+00  2.555780325527E+00  2.586449689433E+00  2.617487085706E+00
  2.648896930735E+00  2.680683693904E+00  2.712851898230E+00  2.745406121009E+00
  2.778350994461E+00  2.811691206395E+00  2.845431500872E+00  2.879576678882E+00
  2.914131599029E+00  2.949101178217E+00  2.984490392356E+00  3.020304277064E+00
  3.056547928389E+00  3.093226503529E+00  3.130345221572E+00  3.167909364230E+00
  3.205924276601E+00  3.244395367920E+00  3.283328112335E+00  3.322728049683E+00
  3.362600786280E+00  3.402951995715E+00  3.443787419664E+00  3.485112868700E+00
  3.526934223124E+00  3.569257433801E+00  3.612088523007E+00  3.655433585283E+00
  3.699298788307E+00  3.743690373766E+00  3.788614658251E+00  3.834078034150E+00
  3.880086970560E+00  3.926648014207E+00  3.973767790377E+00  4.021453003862E+00
  4.069710439908E+00  4.118546965187E+00  4.167969528769E+00  4.217985163115E+00
  4.268600985072E+00  4.319824196893E+00  4.371662087256E+00  4.424122032303E+00
  4.477211496690E+00  4.530938034651E+00  4.585309291066E+00  4.640333002559E+00
  4.696016998590E+00  4.752369202573E+00  4.809397633004E+00  4.867110404600E+00
  4.925515729455E+00  4.984621918209E+00  5.044437381227E+00  5.104970629802E+00
  5.166230277360E+00  5.228225040688E+00  5.290963741176E+00  5.354455306070E+00
  5.418708769743E+00  5.483733274980E+00  5.549538074280E+00  5.616132531171E+00
  5.683526121545E+00  5.751728435004E+00  5.820749176224E+00  5.890598166338E+00
  5.961285344334E+00  6.032820768466E+00  6.105214617688E+00  6.178477193100E+00
  6.252618919418E+00  6.327650346451E+00  6.403582150608E+00  6.480425136415E+00
  6.558190238052E+00  6.636888520909E+00  6.716531183160E+00  6.797129557358E+00
  6.878695112046E+00  6.961239453391E+00  7.044774326831E+00  7.129311618753E+00
  7.214863358178E+00  7.301441718476E+00  7.389059019098E+00  7.477727727327E+00
  7.567460460055E+00  7.658269985576E+00  7.750169225403E+00  7.843171256108E+00
  7.937289311181E+00  8.032536782915E+00  8.128927224310E+00  8.226474351002E+00
  8.325192043214E+00  8.425094347732E+00  8.526195479905E+00  8.628509825664E+00
  8.732051943572E+00  8.836836566895E+00  8.942878605698E+00  9.050193148966E+00
  9.158795466753E+00  9.268701012355E+00  9.379925424503E+00  9.492484529597E+00
  9.606394343952E+00  9.721671076079E+00  9.838331128992E+00  9.956391102540E+00
  1.007586779577E+01  1.019677820932E+01  1.031913954783E+01  1.044296922241E+01
  1.056828485307E+01  1.069510427131E+01  1.082344552257E+01  1.095332686884E+01
  1.108476679126E+01  1.121778399276E+01  1.135239740067E+01  1.148862616948E+01
  1.162648968351E+01  1.176600755972E+01  1.190719965043E+01  1.205008604624E+01
  1.219468707879E+01  1.234102332374E+01  1.248911560362E+01  1.263898499087E+01
  1.279065281076E+01  1.294414064449E+01  1.309947033222E+01  1.325666397621E+01
  1.341574394392E+01  1.357673287125E+01  1.373965366570E+01  1.390452950969E+01
  1.407138386381E+01  1.424024047017E+01  1.441112335582E+01  1.458405683609E+01
  1.475906551812E+01  1.493617430434E+01  1.511540839599E+01  1.529679329674E+01
  1.548035481630E+01  1.566611907410E+01  1.585411250299E+01  1.604436185302E+01
  1.623689419526E+01  1.643173692560E+01  1.662891776871E+01  1.682846478193E+01
  1.703040635932E+01  1.723477123563E+01  1.744158849046E+01  1.765088755234E+01
  1.786269820297E+01  1.807705058140E+01  1.829397518838E+01  1.851350289064E+01
  1.873566492533E+01  1.896049290443E+01  1.918801881929E+01  1.941827504512E+01
  1.965129434566E+01  1.988710987781E+01  2.012575519634E+01  2.036726425870E+01
  2.061167142980E+01  2.085901148696E+01  2.110931962480E+01  2.136263146030E+01
  2.161898303782E+01  2.187841083428E+01  2.214095176429E+01  2.240664318546E+01
  2.267552290369E+01  2.294762917853E+01  2.322300072867E+01  2.350167673742E+01
  2.378369685827E+01  2.406910122057E+01  2.435793043521E+01  2.465022560043E+01
  2.494602830764E+01  2.524538064733E+01  2.554832521510E+01  2.585490511768E+01
  2.616516397909E+01  2.647914594684E+01  2.679689569820E+01  2.711845844658E+01
  2.744387994794E+01  2.777320650732E+01  2.810648498540E+01  2.844376280523E+01
  2.878508795889E+01  2.913050901440E+01  2.948007512257E+01  2.983383602404E+01
  3.019184205633E+01  3.055414416101E+01  3.092079389094E+01  3.129184341763E+01
  3.166734553864E+01  3.204735368511E+01  3.243192192933E+01  3.282110499248E+01
  3.321495825239E+01  3.361353775142E+01  3.401690020443E+01  3.442510300689E+01
  3.483820424297E+01  3.525626269389E+01  3.567933784621E+01  3.610748990037E+01
  3.654077977917E+01  3.697926913652E+01  3.742302036616E+01  3.787209661055E+01
  3.832656176988E+01  3.878648051112E+01  3.925191827725E+01  3.972294129658E+01
  4.019961659214E+01  4.068201199124E+01  4.117019613514E+01  4.166423848876E+01
  4.216420935063E+01  4.267017986283E+01  4.318222202119E+01  4.370040868544E+01
  4.422481358967E+01
</grid-data>
</grid>
<valence-charge total-charge="16" is-unscreening-charge="yes"
 rescaled-to-z-pseudo="no">
<radfunc>
<data npts="457">
  1.001949077251E+01  1.002581151812E+01  1.004470325814E+01  1.007621097402E+01
  1.011999632531E+01  1.017753193660E+01  1.025079859631E+01  1.033461021072E+01
  1.042873880918E+01  1.053836221729E+01  1.066173847604E+01  1.079561338969E+01
  1.095709297126E+01  1.112537148928E+01  1.132339223184E+01  1.152062174165E+01
  1.174707166711E+01  1.196106186219E+01  1.220085703599E+01  1.246937858323E+01
  1.276982601561E+01  1.303550518141E+01  1.332576660303E+01  1.364265436493E+01
  1.398833201231E+01  1.436507746537E+01  1.477527414015E+01  1.510636009949E+01
  1.545872530052E+01  1.583345878178E+01  1.623165893944E+01  1.665442420489E+01
  1.710284173328E+01  1.757797381645E+01  1.808084170610E+01  1.861240650589E+01
  1.917354676570E+01  1.976503238926E+01  2.017653304287E+01  2.060195027113E+01
  2.104139050171E+01  2.149491532655E+01  2.196253547254E+01  2.244420427547E+01
  2.293981064018E+01  2.344917147316E+01  2.397202357911E+01  2.450801501846E+01
  2.505669593061E+01  2.561750883677E+01  2.618977844699E+01  2.677270100935E+01
  2.736533325451E+01  2.796658100693E+01  2.857518755476E+01  2.918972189448E+01
  2.980856699309E+01  3.042990824141E+01  3.105172230546E+01  3.167176662029E+01
  3.228756981088E+01  3.289642336770E+01  3.349537495026E+01  3.408122373884E+01
  3.465051830182E+01  3.519955749266E+01  3.572439493399E+01  3.597643973740E+01
  3.622084768438E+01  3.645706115303E+01  3.668450971384E+01  3.690261085915E+01
  3.711077083317E+01  3.730838556733E+01  3.749484172563E+01  3.766951786491E+01
  3.783178571391E+01  3.798101157542E+01  3.811655785490E+01  3.823778471877E+01
  3.834405188469E+01  3.843472054595E+01  3.850915543092E+01  3.856672699781E+01
  3.860681376426E+01  3.862880476988E+01  3.863210216903E+01  3.861612394964E+01
  3.858030677266E+01  3.852410892534E+01  3.844701337962E+01  3.834853094574E+01
  3.822820350908E+01  3.808560733650E+01  3.792035643669E+01  3.773210595682E+01
  3.752055559618E+01  3.728545301497E+01  3.702659721504E+01  3.674384186677E+01
  3.643709855487E+01  3.610633991382E+01  3.575160262202E+01  3.537299022216E+01
  3.497067573416E+01  3.454490402587E+01  3.409599390569E+01  3.362433990146E+01
  3.313041368919E+01  3.261476513609E+01  3.207802292298E+01  3.152089471264E+01
  3.094416683239E+01  3.034870344196E+01  2.973544516047E+01  2.910540713056E+01
  2.845967650144E+01  2.779940931838E+01  2.712582681105E+01  2.644021108000E+01
  2.574390018682E+01  2.503828266115E+01  2.432479144516E+01  2.360489730417E+01
  2.288010174045E+01  2.215192945509E+01  2.142192041171E+01  2.069162156305E+01
  1.996257830979E+01  1.923632576744E+01  1.851437992389E+01  1.779822877525E+01
  1.708932353226E+01  1.638906999204E+01  1.569882017223E+01  1.501986430372E+01
  1.435342327743E+01  1.370064163631E+01  1.306258119929E+01  1.244021539652E+01
  1.183442438670E+01  1.124599101719E+01  1.067559767566E+01  1.012382406945E+01
  9.591145954521E+00  9.077934821857E+00  8.584458533761E+00  8.110882888191E+00
  7.657274074564E+00  7.223601971311E+00  6.809744223632E+00  6.415491029589E+00
  6.040550553199E+00  5.684554876271E+00  5.347066396767E+00  5.027592713473E+00
  4.725620425312E+00  4.440610936642E+00  4.171983983843E+00  3.919126766372E+00
  3.681393219503E+00  3.458116799903E+00  3.248623625713E+00  3.052235456574E+00
  2.868274337201E+00  2.696066815050E+00  2.534947797491E+00  2.384264031746E+00
  2.243377205683E+00  2.111666671864E+00  1.988531800389E+00  1.873393968030E+00
  1.765698191927E+00  1.664914415918E+00  1.570538456691E+00  1.482092615768E+00
  1.399125962229E+00  1.321229814552E+00  1.248085744964E+00  1.179425917017E+00
  1.114983644173E+00  1.054504459386E+00  9.977459454742E-01  9.444775288225E-01
  8.944802405400E-01  8.475464490593E-01  8.034795679592E-01  7.620937426217E-01
  7.232135191334E-01  6.866734986474E-01  6.523179802177E-01  6.200005949181E-01
  5.895839338543E-01  5.609391724766E-01  5.339456934031E-01  5.084907097684E-01
  4.844688909241E-01  4.617819921324E-01  4.403384897180E-01  4.200532229732E-01
  4.008470439486E-01  3.826464761084E-01  3.653833826831E-01  3.489946454165E-01
  3.334218542757E-01  3.186110085743E-01  3.045122298497E-01  2.910794867332E-01
  2.782703319607E-01  2.660456515885E-01  2.543694264013E-01  2.432085054341E-01
  2.325323914689E-01  2.223130383139E-01  2.125246596283E-01  2.031435490151E-01
  1.941479110716E-01  1.855177030587E-01  1.772344868285E-01  1.692812906307E-01
  1.616424804055E-01  1.543036401598E-01  1.472514610195E-01  1.404736385455E-01
  1.339587779039E-01  1.276963064791E-01  1.216763935289E-01  1.158898764825E-01
  1.103281934928E-01  1.049833218651E-01  9.984772199288E-02  9.491428644493E-02
  9.017629386068E-02  8.562736732267E-02  8.126143688993E-02  7.707270598944E-02
  7.305562137681E-02  6.920484639177E-02  6.551523724760E-02  6.198182210797E-02
  5.859978271799E-02  5.536443836975E-02  5.227123199553E-02  4.931571819461E-02
  4.649355301183E-02  4.380048529749E-02  4.123234948994E-02  3.878505967277E-02
  3.645460476874E-02  3.423704474236E-02  3.212850769451E-02  3.012518773534E-02
  2.822334353876E-02  2.641929748284E-02  2.470943529112E-02  2.309020609609E-02
  2.155812285303E-02  2.010976303863E-02  1.874176957470E-02  1.745085192288E-02
  1.623378730139E-02  1.508742197989E-02  1.400867261306E-02  1.299452757765E-02
  1.204204828209E-02  1.114837042111E-02  1.031070515181E-02  9.526340170398E-03
  8.792640672330E-03  8.107050181100E-03  7.467091233842E-03  6.870365914218E-03
  6.314556225414E-03  5.797424298216E-03  5.316812431052E-03  4.870642960722E-03
  4.456917964174E-03  4.073718793220E-03  3.719205445409E-03  3.391615775561E-03
  3.089264553544E-03  2.810542374840E-03  2.553914431346E-03  2.317919150554E-03
  2.101166711910E-03  1.902337449632E-03  1.720180151738E-03  1.553510265266E-03
  1.401208017963E-03  1.262216466777E-03  1.135539483562E-03  1.020239688340E-03
  9.154363403512E-04  8.203031969257E-04  7.340663499486E-04  6.560020493836E-04
  5.854345229365E-04  5.217338005295E-04  4.643135517964E-04  4.126289443124E-04
  3.661745297513E-04  3.244821646158E-04  2.871189716233E-04  2.536853472562E-04
  2.238130204051E-04  1.971631664514E-04  1.734245805633E-04  1.523119134077E-04
  1.335639719302E-04  1.169420873174E-04  1.022285517399E-04  8.922512498334E-05
  7.775161160779E-05  6.764450883987E-05  5.875572499481E-05  5.095136785037E-05
  4.411060205257E-05  3.812457432337E-05  3.289540496483E-05  2.833524391096E-05
  2.436538936856E-05  2.091546690936E-05  1.792266672828E-05  1.533103666398E-05
  1.309082848744E-05  1.115789489996E-05  9.493134642213E-06  8.061983098808E-06
  6.833945785984E-06  5.782172132366E-06  4.883067001180E-06  4.115937455712E-06
  3.462672335822E-06  2.907452290172E-06  2.436487994692E-06  2.037784380986E-06
  1.700928797172E-06  1.416901126722E-06  1.177903996568E-06  9.772113131054E-07
  8.090334723460E-07  6.683976975071E-07  5.510420628118E-07  4.533218658279E-07
  3.721271057764E-07  3.048099601630E-07  2.491210695767E-07  2.031540560307E-07
  1.652967995203E-07  1.341890921431E-07  1.086859793109E-07  8.782596391002E-08
  7.080351414179E-08  5.694536942248E-08  4.569017149846E-08  3.657099884577E-08
  2.920042902107E-08  2.325779610922E-08  1.847834898971E-08  1.464405104579E-08
  1.157579340020E-08  9.126822015960E-09  7.177204285607E-09  5.629183278285E-09
  4.403287848057E-09  3.435084546017E-09  2.672472931722E-09  2.073439643940E-09
  1.604198655152E-09  1.237655654857E-09  9.504336374608E-10  7.291396702712E-10
  5.577385317604E-10  4.253702145425E-10  3.234486282938E-10  2.452056401508E-10
  1.853221729552E-10  1.396306523722E-10  1.048757449333E-10  7.852256807274E-11
  5.860343775988E-11  4.359579997924E-11  3.232531347973E-11  2.388915162496E-11
  1.759550450179E-11  1.291601780741E-11  9.448527537328E-12  6.887960670136E-12
  5.003690288359E-12  3.621974541656E-12  2.612385811007E-12  1.877360560986E-12
  1.344181073798E-12  9.588454109540E-13  6.813981017339E-13  4.823866518734E-13
  3.401824961632E-13  2.389631837369E-13  1.671984156386E-13  1.165185238129E-13
  8.087209828116E-14  5.590136053177E-14  3.848085556871E-14  2.637814292757E-14
  1.800524707114E-14  1.223734680831E-14  8.281069662692E-15  5.579226485339E-15
  3.742200460416E-15  2.498747913469E-15  1.660874187387E-15  1.098869673993E-15
  7.236470223490E-16  4.743011672268E-16  3.093882513399E-16  2.008402442155E-16
  1.297387613951E-16  8.339409819122E-17  5.333614435339E-17  3.393927070233E-17
  2.148579958637E-17  1.353137343358E-17  8.477083825639E-18  5.282480231497E-18
  3.274072727076E-18  2.018225555837E-18  1.237238927595E-18  7.542427790258E-19
  4.572074759876E-19  2.755691371090E-19  1.651326985052E-19  9.837633155599E-20
  5.826029008115E-20  3.429637281091E-20  2.006716157410E-20  1.166955245840E-20
  6.744050934848E-21  3.873052145301E-21  2.210134670421E-21  1.253093569294E-21
  7.058527986408E-22  0.000000000000E+00  0.000000000000E+00  0.000000000000E+00
  0.000000000000E+00  0.000000000000E+00  0.000000000000E+00  0.000000000000E+00
  0.000000000000E+00  0.000000000000E+00  0.000000000000E+00  0.000000000000E+00
  0.000000000000E+00  0.000000000000E+00  0.000000000000E+00  0.000000000000E+00
  0.000000000000E+00
</data>
</radfunc>
</valence-charge>
<pseudocore-charge matching-radius="0.421954997147"
 number-of-continuous-derivatives="4">
<annotation model-charge-form="Teter function with specified parameters" />
<radfunc>
<data npts="290">
  1.138082624946E+02  1.137904420550E+02  1.137371799990E+02  1.136483513728E+02
  1.135249130516E+02  1.133627178043E+02  1.131561880349E+02  1.129199494068E+02
  1.126546503992E+02  1.123457055213E+02  1.119980339641E+02  1.116208143821E+02
  1.111658617885E+02  1.106918073330E+02  1.101340316183E+02  1.095785488663E+02
  1.089408401998E+02  1.083382815836E+02  1.076631222931E+02  1.069071455963E+02
  1.060613471012E+02  1.053134604556E+02  1.044963914121E+02  1.036043649249E+02
  1.026312547643E+02  1.015705912508E+02  1.004155772648E+02  9.948313950285E+01
  9.849054839964E+01  9.743463892623E+01  9.631219005778E+01  9.511994343907E+01
  9.385462591940E+01  9.251297641093E+01  9.109177754204E+01  8.958789258572E+01
  8.799830814054E+01  8.632018302310E+01  8.515094188424E+01  8.394047638170E+01
  8.268814727241E+01  8.139339121376E+01  8.005573108904E+01  7.867478698127E+01
  7.725028778291E+01  7.578208341886E+01  7.427015764798E+01  7.271464139498E+01
  7.111582654891E+01  6.947418014700E+01  6.779035884308E+01  6.606522353834E+01
  6.429985402834E+01  6.249556349482E+01  6.065391264311E+01  5.877672325704E+01
  5.686609091278E+01  5.492439656173E+01  5.295431666112E+01  5.095883149999E+01
  4.894123133847E+01  4.690511995128E+01  4.485441514305E+01  4.279334578524E+01
  4.072644491358E+01  3.865853842338E+01  3.659472890974E+01  3.556602557759E+01
  3.454037422267E+01  3.351848001121E+01  3.250106034631E+01  3.148884368726E+01
  3.048256826934E+01  2.948298072292E+01  2.849083459143E+01  2.750688874813E+01
  2.653190571245E+01  2.556664986692E+01  2.461188557690E+01  2.366837521560E+01
  2.273687709808E+01  2.181814332838E+01  2.091291756523E+01  2.002193271240E+01
  1.914590854092E+01  1.828554925121E+01  1.744154098464E+01  1.661454929437E+01
  1.580521658720E+01  1.501415954863E+01  1.424196656464E+01  1.348919515479E+01
  1.275636943209E+01  1.204397760625E+01  1.135246954757E+01  1.068225442981E+01
  1.003369847095E+01  9.407122791369E+00  8.802801409511E+00  8.220959395330E+00
  7.661771202048E+00  7.125359196636E+00  6.611792409199E+00  6.121085520934E+00
  5.653198109609E+00  5.208034170458E+00  4.785441929141E+00  4.385213961816E+00
  4.007087635476E+00  3.650745879562E+00  3.315818297323E+00  3.001882622674E+00
  2.708466525156E+00  2.435049762336E+00  2.181066675319E+00  1.945909019283E+00
  1.728929116925E+00  1.529443318560E+00  1.346735748415E+00  1.180062312375E+00
  1.028654938229E+00  8.917260153435E-01  7.684729967609E-01  6.580831230459E-01
  5.597382239025E-01  4.726195506975E-01  3.959125906893E-01  3.288118120239E-01
  2.705252875279E-01  2.202791450631E-01  1.773217927814E-01  1.409278690858E-01
  1.104018694994E-01  8.508140599463E-02  6.434005863984E-02  4.758978465691E-02
  3.428285610693E-02  2.391330436085E-02  1.601785716525E-02  1.017636235725E-02
  6.011700961871E-03  3.189201343401E-03  1.415575079521E-03  4.374040651030E-04
  3.921680163957E-05  4.119964982680E-05  2.965957799364E-04  6.888504178705E-04
  1.128565542063E-03  1.550330251485E-03  1.909494446951E-03  2.178953139774E-03
  2.346006568565E-03  2.409357370599E-03  2.376300386208E-03  2.260153407583E-03
  2.077968518007E-03  1.848553868993E-03  1.590825133441E-03  1.322494823484E-03
  1.059096577970E-03  8.133308315714E-04  5.947084010321E-04  4.094598701478E-04
  2.606715887284E-04  1.486039249869E-04  7.114434691855E-05  2.434707932666E-05
  3.012501651346E-06  1.263012575347E-06  1.307756779610E-05  3.275416415513E-05
  5.527776776020E-05  7.658006392172E-05  9.368639666419E-05  1.047538094698E-04
  1.090116685926E-04  1.066224832096E-04  9.848487154482E-05  8.600292894378E-05
  7.084645554403E-05  5.472468368387E-05  3.919255481545E-05  2.550362212208E-05
  1.451780071764E-05  6.666024754936E-06  1.967991119050E-06  9.412644413966E-08
  4.591695430861E-07  2.332636278838E-06  4.951074077545E-06  7.618370873348E-06
  9.783220172440E-06  1.108675701781E-05  1.137784679238E-05  1.069795127199E-05
  9.241350776173E-06  7.299292469733E-06  5.198039557176E-06  3.240688142154E-06
  1.661087935753E-06  5.955443209867E-07  7.464890529286E-08  0.000000000000E+00
  0.000000000000E+00  0.000000000000E+00  0.000000000000E+00  0.000000000000E+00
  0.000000000000E+00  0.000000000000E+00  0.000000000000E+00  0.000000000000E+00
  0.000000000000E+00  0.000000000000E+00  0.000000000000E+00  0.000000000000E+00
  0.000000000000E+00  0.000000000000E+00  0.000000000000E+00  0.000000000000E+00
  0.000000000000E+00  0.000000000000E+00  0.000000000000E+00  0.000000000000E+00
  0.000000000000E+00  0.000000000000E+00  0.000000000000E+00  0.000000000000E+00
  0.000000000000E+00  0.000000000000E+00  0.000000000000E+00  0.000000000000E+00
  0.000000000000E+00  0.000000000000E+00  0.000000000000E+00  0.000000000000E+00
  0.000000000000E+00  0.000000000000E+00  0.000000000000E+00  0.000000000000E+00
  0.000000000000E+00  0.000000000000E+00  0.000000000000E+00  0.000000000000E+00
  0.000000000000E+00  0.000000000000E+00  0.000000000000E+00  0.000000000000E+00
  0.000000000000E+00  0.000000000000E+00  0.000000000000E+00  0.000000000000E+00
  0.000000000000E+00  0.000000000000E+00  0.000000000000E+00  0.000000000000E+00
  0.000000000000E+00  0.000000000000E+00  0.000000000000E+00  0.000000000000E+00
  0.000000000000E+00  0.000000000000E+00  0.000000000000E+00  0.000000000000E+00
  0.000000000000E+00  0.000000000000E+00  0.000000000000E+00  0.000000000000E+00
  0.000000000000E+00  0.000000000000E+00  0.000000000000E+00  0.000000000000E+00
  0.000000000000E+00  0.000000000000E+00  0.000000000000E+00  0.000000000000E+00
  0.000000000000E+00  0.000000000000E+00  0.000000000000E+00  0.000000000000E+00
  0.000000000000E+00  0.000000000000E+00  0.000000000000E+00  0.000000000000E+00
  0.000000000000E+00  0.000000000000E+00  0.000000000000E+00  0.000000000000E+00
  0.000000000000E+00  0.000000000000E+00
</data>
</radfunc>
</pseudocore-charge>
<semilocal-potentials set="scalar_relativistic">
<slps n="3" l="s" rc="1.26436738621" eref="-3.43659982318">
<radfunc>
<data npts="290">
 -1.930485941694E+01 -1.930546441051E+01 -1.930727246183E+01 -1.931028750525E+01
 -1.931447654168E+01 -1.931997953878E+01 -1.932698457741E+01 -1.933499431227E+01
 -1.934398556229E+01 -1.935445094451E+01 -1.936622161797E+01 -1.937898475689E+01
 -1.939436695421E+01 -1.941038207707E+01 -1.942920854680E+01 -1.944793914508E+01
 -1.946941938095E+01 -1.948969282301E+01 -1.951238230426E+01 -1.953775388969E+01
 -1.956609700648E+01 -1.959112064040E+01 -1.961841720355E+01 -1.964816722670E+01
 -1.968056002049E+01 -1.971579278838E+01 -1.975406933741E+01 -1.978489961656E+01
 -1.981764837903E+01 -1.985240476352E+01 -1.988925714338E+01 -1.992829211282E+01
 -1.996959328888E+01 -2.001323990638E+01 -2.005930518163E+01 -2.010785441922E+01
 -2.015894283482E+01 -2.021261306634E+01 -2.024984173824E+01 -2.028823398648E+01
 -2.032778929767E+01 -2.036850252698E+01 -2.041036336034E+01 -2.045335573781E+01
 -2.049745723670E+01 -2.054263841387E+01 -2.058886210636E+01 -2.063608269004E+01
 -2.068424529652E+01 -2.073328498863E+01 -2.078312589563E+01 -2.083368030969E+01
 -2.088484774601E+01 -2.093651396956E+01 -2.098854999243E+01 -2.104081104671E+01
 -2.109313553867E+01 -2.114534399161E+01 -2.119723798554E+01 -2.124859910367E+01
 -2.129918789680E+01 -2.134874287855E+01 -2.139697956600E+01 -2.144358958191E+01
 -2.148823983674E+01 -2.153057181047E+01 -2.157020095603E+01 -2.158887456612E+01
 -2.160671624824E+01 -2.162367044103E+01 -2.163967990391E+01 -2.165468571961E+01
 -2.166862730058E+01 -2.168144239933E+01 -2.169306712315E+01 -2.170343595333E+01
 -2.171248176917E+01 -2.172013587704E+01 -2.172632804486E+01 -2.173098654204E+01
 -2.173403818538E+01 -2.173540839109E+01 -2.173502123322E+01 -2.173279950874E+01
 -2.172866480964E+01 -2.172253760221E+01 -2.171433731382E+01 -2.170398242741E+01
 -2.169139058410E+01 -2.167647869387E+01 -2.165916305494E+01 -2.163935948164E+01
 -2.161698344142E+01 -2.159195020084E+01 -2.156417498095E+01 -2.153357312212E+01
 -2.150006025849E+01 -2.146355250218E+01 -2.142396663730E+01 -2.138122032381E+01
 -2.133523231135E+01 -2.128592266290E+01 -2.123321298821E+01 -2.117702668698E+01
 -2.111728920144E+01 -2.105392827831E+01 -2.098687423954E+01 -2.091606026164E+01
 -2.084142266304E+01 -2.076290119883E+01 -2.068043936224E+01 -2.059398469198E+01
 -2.050348908450E+01 -2.040890911016E+01 -2.031020633180E+01 -2.020734762463E+01
 -2.010030549565E+01 -1.998905840087E+01 -1.987359105852E+01 -1.975389475611E+01
 -1.962996764908E+01 -1.950181504875E+01 -1.936944969703E+01 -1.923289202537E+01
 -1.909217039543E+01 -1.894732131901E+01 -1.879838965475E+01 -1.864542877980E+01
 -1.848850073462E+01 -1.832767634011E+01 -1.816303528667E+01 -1.799466619632E+01
 -1.782266666001E+01 -1.764714325435E+01 -1.746821154370E+01 -1.728599607672E+01
 -1.710063038885E+01 -1.691225702639E+01 -1.672102761151E+01 -1.652710297232E+01
 -1.633065336732E+01 -1.613185883878E+01 -1.593090973583E+01 -1.572800745355E+01
 -1.552336544040E+01 -1.531721053144E+01 -1.510978466885E+01 -1.490134707398E+01
 -1.469217693497E+01 -1.448257667087E+01 -1.427287582501E+01 -1.406343562680E+01
 -1.385465424004E+01 -1.364697268598E+01 -1.344088138904E+01 -1.323692683457E+01