<?xml version="1.0" encoding="UTF-8" ?>
<psml version="1.1" energy_unit="hartree" length_unit="bohr"
 uuid="a4359740-23d2-11e8-6afa-14ff59ba22b0"
 xmlns="http://esl.cecam.org/PSML/ns/1.1">
<provenance creator="ONCVPSP-3.3.0+psml-3.3.0-73 (scalar-relativistic)"
 date="2018-03-09">
<annotation action="semilocal-pseudopotential-generation"
 action-cont="projectors-generation" />
<input-file name="oncvpsp-input">
<![CDATA[# atsym z nc nv iexc psfile
Ga 31 5 3 -001012 upf
# n l f
1 0 2.0
2 0 2.0
2 1 6.0
3 0 2.0
3 1 6.0
3 2 10.0
4 0 2.0
4 1 1.0
# lmax
2
# l rc ep ncon nbas qcut
0 1.65 0.0 4 8 4.4
1 1.75 0.0 4 8 6.2
2 1.9 0.0 4 9 9.0
# lloc lpopt rc5 dvloc0
4 5 1.6 0.0
# l nproj debl
0 2 3.0
1 2 3.0
2 2 2.0
# icmod fcfact rcfact
3 5.0 1.4
# epsh1 epsh2 depsh
-12.0 12.0 0.02
# rlmax drl
6.0 0.01
 0
]]>
</input-file>
</provenance>
<pseudo-atom-spec atomic-label="Ga" atomic-number="31" z-pseudo="13"
 flavor="Hamann&apos;s oncvpsp" relativity="scalar" spin-dft="no"
 core-corrections="yes">
<annotation pseudo-energy="-67.1937613874" />
<exchange-correlation>
<annotation oncvpsp-xc-code="-1012" oncvpsp-xc-type="libxc-interface" />
<libxc-info number-of-functionals="2">
<functional name="Slater exchange (LDA)" type="exchange" id="1" />
<functional name="Perdew &amp; Wang (LDA)" type="correlation" id="12" />
</libxc-info>
</exchange-correlation>
<valence-configuration total-valence-charge="13">
<shell n="3" l="d" occupation="10" />
<shell n="4" l="s" occupation="2" />
<shell n="4" l="p" occupation="1" />
</valence-configuration>
</pseudo-atom-spec>
<grid npts="458">
<annotation type="sampled from oncvpsp log grid"
 recipe="r(i:1..N) = r1*exp(a*(i-1)) + r=0; resampled"
 recipe-cont="r1: scale; a: step" scale="0.161290322581E-04"
 step="0.119285708653E-01" delta="0.500000000000E-02" rmax="44.3593682749" />
<grid-data>
  0.000000000000E+00  5.005354308404E-03  1.011777605404E-02  1.517827746610E-02
  2.020946365338E-02  2.535038301076E-02  3.068122710716E-02  3.582773785855E-02
  4.085121947787E-02  4.602673310278E-02  5.124302544502E-02  5.637400155005E-02
  6.201874349076E-02  6.741965885400E-02  7.242185184910E-02  7.779518191586E-02
  8.356718552202E-02  8.870300612650E-02  9.415446082966E-02  9.994094767748E-02
  1.060830568691E-01  1.112674348058E-01  1.167051781279E-01  1.224086690381E-01
  1.283908948690E-01  1.346654776560E-01  1.412467051564E-01  1.463928491930E-01
  1.517264864416E-01  1.572544479790E-01  1.629838137635E-01  1.689219217026E-01
  1.750763770511E-01  1.814550621518E-01  1.880661465305E-01  1.949180973592E-01
  2.020196903006E-01  2.093800207477E-01  2.144352919686E-01  2.196126176579E-01
  2.249149446987E-01  2.303452911235E-01  2.359067478323E-01  2.416024803520E-01
  2.474357306376E-01  2.534098189181E-01  2.595281455861E-01  2.657941931331E-01
  2.722115281321E-01  2.787838032674E-01  2.855147594134E-01  2.924082277647E-01
  2.994681320159E-01  3.066984905953E-01  3.141034189522E-01  3.216871318994E-01
  3.294539460120E-01  3.374082820845E-01  3.455546676471E-01  3.538977395428E-01
  3.624422465663E-01  3.711930521674E-01  3.801551372189E-01  3.893336028520E-01
  3.987336733592E-01  4.083606991688E-01  4.182201598895E-01  4.232388018082E-01
  4.283176674299E-01  4.334574794391E-01  4.386589691923E-01  4.439228768226E-01
  4.492499513445E-01  4.546409507606E-01  4.600966421698E-01  4.656178018758E-01
  4.712052154983E-01  4.768596780843E-01  4.825819942213E-01  4.883729781520E-01
  4.942334538898E-01  5.001642553365E-01  5.061662264005E-01  5.122402211173E-01
  5.183871037707E-01  5.246077490160E-01  5.309030420042E-01  5.372738785082E-01
  5.437211650503E-01  5.502458190309E-01  5.568487688593E-01  5.635309540856E-01
  5.702933255346E-01  5.771368454410E-01  5.840624875863E-01  5.910712374374E-01
  5.981640922866E-01  6.053420613940E-01  6.126061661308E-01  6.199574401243E-01
  6.273969294058E-01  6.349256925587E-01  6.425448008694E-01  6.502553384798E-01
  6.580584025416E-01  6.659551033721E-01  6.739465646126E-01  6.820339233879E-01
  6.902183304686E-01  6.985009504342E-01  7.068829618394E-01  7.153655573815E-01
  7.239499440701E-01  7.326373433989E-01  7.414289915197E-01  7.503261394179E-01
  7.593300530909E-01  7.684420137280E-01  7.776633178928E-01  7.869952777075E-01
  7.964392210400E-01  8.059964916924E-01  8.156684495928E-01  8.254564709879E-01
  8.353619486397E-01  8.453862920234E-01  8.555309275277E-01  8.657972986580E-01
  8.761868662419E-01  8.867011086368E-01  8.973415219405E-01  9.081096202037E-01
  9.190069356462E-01  9.300350188739E-01  9.411954391004E-01  9.524897843696E-01
  9.639196617821E-01  9.754866977235E-01  9.871925380961E-01  9.990388485533E-01
  1.011027314736E+00  1.023159642513E+00  1.035437558223E+00  1.047862808922E+00
  1.060437162629E+00  1.073162408580E+00  1.086040357483E+00  1.099072841773E+00
  1.112261715874E+00  1.125608856465E+00  1.139116162742E+00  1.152785556695E+00
  1.166618983376E+00  1.180618411176E+00  1.194785832110E+00  1.209123262095E+00
  1.223632741241E+00  1.238316334136E+00  1.253176130145E+00  1.268214243707E+00
  1.283432814631E+00  1.298834008407E+00  1.314420016508E+00  1.330193056706E+00
  1.346155373386E+00  1.362309237867E+00  1.378656948721E+00  1.395200832106E+00
  1.411943242091E+00  1.428886560996E+00  1.446033199728E+00  1.463385598125E+00
  1.480946225303E+00  1.498717580006E+00  1.516702190966E+00  1.534902617258E+00
  1.553321448665E+00  1.571961306049E+00  1.590824841722E+00  1.609914739822E+00
  1.629233716700E+00  1.648784521301E+00  1.668569935556E+00  1.688592774783E+00
  1.708855888080E+00  1.729362158737E+00  1.750114504642E+00  1.771115878698E+00
  1.792369269242E+00  1.813877700473E+00  1.835644232879E+00  1.857671963673E+00
  1.879964027237E+00  1.902523595564E+00  1.925353878711E+00  1.948458125255E+00
  1.971839622759E+00  1.995501698232E+00  2.019447718610E+00  2.043681091234E+00
  2.068205264329E+00  2.093023727500E+00  2.118140012230E+00  2.143557692377E+00
  2.169280384686E+00  2.195311749302E+00  2.221655490294E+00  2.248315356177E+00
  2.275295140451E+00  2.302598682137E+00  2.330229866322E+00  2.358192624718E+00
  2.386490936215E+00  2.415128827449E+00  2.444110373379E+00  2.473439697859E+00
  2.503120974234E+00  2.533158425924E+00  2.563556327036E+00  2.594319002960E+00
  2.625450830996E+00  2.656956240967E+00  2.688839715859E+00  2.721105792449E+00
  2.753759061959E+00  2.786804170702E+00  2.820245820751E+00  2.854088770600E+00
  2.888337835847E+00  2.922997889877E+00  2.958073864556E+00  2.993570750930E+00
  3.029493599941E+00  3.065847523141E+00  3.102637693418E+00  3.139869345739E+00
  3.177547777888E+00  3.215678351223E+00  3.254266491438E+00  3.293317689335E+00
  3.332837501607E+00  3.372831551626E+00  3.413305530246E+00  3.454265196609E+00
  3.495716378968E+00  3.537664975516E+00  3.580116955222E+00  3.623078358684E+00
  3.666555298989E+00  3.710553962577E+00  3.755080610127E+00  3.800141577449E+00
  3.845743276378E+00  3.891892195695E+00  3.938594902043E+00  3.985858040868E+00
  4.033688337358E+00  4.082092597406E+00  4.131077708575E+00  4.180650641078E+00
  4.230818448771E+00  4.281588270156E+00  4.332967329398E+00  4.384962937351E+00
  4.437582492599E+00  4.490833482510E+00  4.544723484301E+00  4.599260166112E+00
  4.654451288106E+00  4.710304703563E+00  4.766828360006E+00  4.824030300326E+00
  4.881918663930E+00  4.940501687897E+00  4.999787708151E+00  5.059785160649E+00
  5.120502582577E+00  5.181948613568E+00  5.244131996931E+00  5.307061580894E+00
  5.370746319865E+00  5.435195275703E+00  5.500417619012E+00  5.566422630440E+00
  5.633219702005E+00  5.700818338429E+00  5.769228158490E+00  5.838458896392E+00
  5.908520403149E+00  5.979422647987E+00  6.051175719762E+00  6.123789828400E+00
  6.197275306340E+00  6.271642610016E+00  6.346902321337E+00  6.423065149193E+00
  6.500141930983E+00  6.578143634155E+00  6.657081357765E+00  6.736966334058E+00
  6.817809930066E+00  6.899623649227E+00  6.982419133018E+00  7.066208162614E+00
  7.151002660566E+00  7.236814692492E+00  7.323656468802E+00  7.411540346428E+00
  7.500478830585E+00  7.590484576552E+00  7.681570391471E+00  7.773749236168E+00
  7.867034227002E+00  7.961438637726E+00  8.056975901379E+00  8.153659612196E+00
  8.251503527542E+00  8.350521569872E+00  8.450727828711E+00  8.552136562655E+00
  8.654762201407E+00  8.758619347824E+00  8.863722779998E+00  8.970087453358E+00
  9.077728502798E+00  9.186661244832E+00  9.296901179770E+00  9.408463993927E+00
  9.521365561854E+00  9.635621948597E+00  9.751249411980E+00  9.868264404924E+00
  9.986683577783E+00  1.010652378072E+01  1.022780206608E+01  1.035053569088E+01
  1.047474211917E+01  1.060043902460E+01  1.072764429289E+01  1.085637602441E+01
  1.098665253670E+01  1.111849236714E+01  1.125191427555E+01  1.138693724685E+01
  1.152358049382E+01  1.166186345974E+01  1.180180582126E+01  1.194342749111E+01
  1.208674862101E+01  1.223178960446E+01  1.237857107971E+01  1.252711393267E+01
  1.267743929986E+01  1.282956857146E+01  1.298352339432E+01  1.313932567505E+01
  1.329699758315E+01  1.345656155415E+01  1.361804029280E+01  1.378145677631E+01
  1.394683425763E+01  1.411419626872E+01  1.428356662394E+01  1.445496942343E+01
  1.462842905651E+01  1.480397020519E+01  1.498161784765E+01  1.516139726182E+01
  1.534333402896E+01  1.552745403731E+01  1.571378348576E+01  1.590234888759E+01
  1.609317707424E+01  1.628629519913E+01  1.648173074152E+01  1.667951151042E+01
  1.687966564854E+01  1.708222163633E+01  1.728720829596E+01  1.749465479551E+01
  1.770459065306E+01  1.791704574090E+01  1.813205028979E+01  1.834963489327E+01
  1.856983051198E+01  1.879266847813E+01  1.901818049987E+01  1.924639866586E+01
  1.947735544985E+01  1.971108371525E+01  1.994761671984E+01  2.018698812047E+01
  2.042923197792E+01  2.067438276165E+01  2.092247535479E+01  2.117354505905E+01
  2.142762759976E+01  2.168475913096E+01  2.194497624053E+01  2.220831595542E+01
  2.247481574688E+01  2.274451353584E+01  2.301744769827E+01  2.329365707065E+01
  2.357318095550E+01  2.385605912697E+01  2.414233183649E+01  2.443203981853E+01
  2.472522429635E+01  2.502192698791E+01  2.532219011176E+01  2.562605639310E+01
  2.593356906982E+01  2.624477189866E+01  2.655970916144E+01  2.687842567138E+01
  2.720096677944E+01  2.752737838079E+01  2.785770692136E+01  2.819199940441E+01
  2.853030339727E+01  2.887266703803E+01  2.921913904249E+01  2.956976871100E+01
  2.992460593553E+01  3.028370120676E+01  3.064710562124E+01  3.101487088870E+01
  3.138704933936E+01  3.176369393143E+01  3.214485825861E+01  3.253059655771E+01
  3.292096371640E+01  3.331601528100E+01  3.371580746437E+01  3.412039715395E+01
  3.452984191979E+01  3.494420002283E+01  3.536353042311E+01  3.578789278818E+01
  3.621734750164E+01  3.665195567166E+01  3.709177913972E+01  3.753688048940E+01
  3.798732305527E+01  3.844317093193E+01  3.890448898312E+01  3.937134285091E+01
  3.984379896512E+01  4.032192455271E+01  4.080578764734E+01  4.129545709911E+01
  4.179100258430E+01  4.229249461531E+01  4.280000455069E+01  4.331360460530E+01
  4.383336786056E+01  4.435936827489E+01
</grid-data>
</grid>
<valence-charge total-charge="13" is-unscreening-charge="yes"
 rescaled-to-z-pseudo="no">
<radfunc>
<data npts="458">
  7.316508869268E-04  7.344370901691E-04  7.487533135519E-04  7.914284988034E-04
  8.900537407913E-04  1.089236571935E-03  1.457392951797E-03  2.036050588397E-03
  2.886643447738E-03  4.145374290379E-03  5.907786823994E-03  8.235356833346E-03
  1.161935007943E-02  1.581853233315E-02  2.068934416683E-02  2.713392045057E-02
  3.565666628920E-02  4.481906445466E-02  5.637259410648E-02  7.093221857013E-02
  8.926674539773E-02  1.072894186942E-01  1.289344703402E-01  1.549121475840E-01
  1.860658788649E-01  2.233952285577E-01  2.680821339751E-01  3.072554295097E-01
  3.520235779930E-01  4.031499882317E-01  4.614937376233E-01  5.280195329835E-01
  6.038082062736E-01  6.900676321107E-01  7.881439027573E-01  8.995325328770E-01
  1.025889388824E+00  1.169040943640E+00  1.274788764864E+00  1.389529007452E+00
  1.513939671410E+00  1.648736822213E+00  1.794674652768E+00  1.952545131150E+00
  2.123177155946E+00  2.307435132337E+00  2.506216872952E+00  2.720450718320E+00
  2.951091762571E+00  3.199117061100E+00  3.465519688587E+00  3.751301508401E+00
  4.057464508465E+00  4.385000554715E+00  4.734879411913E+00  5.108034883674E+00
  5.505348929830E+00  5.927633630822E+00  6.375610886657E+00  6.849889763336E+00
  7.350941433857E+00  7.879071705123E+00  8.434391177899E+00  9.016783155466E+00
  9.625869499169E+00  1.026097472665E+01  1.092108876182E+01  1.126010758279E+01
  1.160482887491E+01  1.195501530219E+01  1.231040149595E+01  1.267069291553E+01
  1.303556474452E+01  1.340466083215E+01  1.377759269034E+01  1.415393855744E+01
  1.453324254067E+01  1.491501384978E+01  1.529872613523E+01  1.568381694477E+01
  1.606968731297E+01  1.645570149887E+01  1.684118688704E+01  1.722543406835E+01
  1.760769711631E+01  1.798719407566E+01  1.836310767950E+01  1.873458631129E+01
  1.910074522788E+01  1.946066805885E+01  1.981340859745E+01  2.015799289659E+01
  2.049342168320E+01  2.081867310185E+01  2.113270579762E+01  2.143446234572E+01
  2.172287303323E+01  2.199685999554E+01  2.225534170738E+01  2.249723782466E+01
  2.272147436997E+01  2.292698925050E+01  2.311273809276E+01  2.327770037422E+01
  2.342088582662E+01  2.354134108105E+01  2.363815651931E+01  2.371047329065E+01
  2.375749044751E+01  2.377847214816E+01  2.377275486871E+01  2.373975456147E+01
  2.367897369162E+01  2.359000807920E+01  2.347255346907E+01  2.332641174792E+01
  2.315149672423E+01  2.294783938465E+01  2.271559253962E+01  2.245503477017E+01
  2.216657358970E+01  2.185074773640E+01  2.150822851634E+01  2.113982012252E+01
  2.074645886244E+01  2.032921123551E+01  1.988927081224E+01  1.942795387933E+01
  1.894669382874E+01  1.844703428424E+01  1.793062097586E+01  1.739919239077E+01
  1.685456924844E+01  1.629864286739E+01  1.573336251177E+01  1.516072182567E+01
  1.458274448350E+01  1.400146920352E+01  1.341893428950E+01  1.283716188139E+01
  1.225814210934E+01  1.168381735627E+01  1.111606684157E+01  1.055669174209E+01
  1.000740106635E+01  9.469798492891E+00  8.945370374295E+00  8.435475094380E+00
  7.941333947176E+00  7.464023683209E+00  7.004470841204E+00  6.563447952393E+00
  6.141571670625E+00  5.739302845238E+00  5.356948516129E+00  4.994665772499E+00
  4.652467379601E+00  4.330229042429E+00  4.027698142840E+00  3.744503758186E+00
  3.480167745988E+00  3.234116661481E+00  3.005694263520E+00  2.794174359864E+00
  2.598773745317E+00  2.418664995634E+00  2.252988895945E+00  2.100866304203E+00
  1.961409276788E+00  1.833731313871E+00  1.716956615134E+00  1.610228270549E+00
  1.512715344789E+00  1.423618846089E+00  1.342176599766E+00  1.267667072114E+00
  1.199412211259E+00  1.136779387253E+00  1.079182524127E+00  1.026082521850E+00
  9.769870667379E-01  9.314499253391E-01  8.890698102586E-01  8.494887144075E-01
  8.123891998425E-01  7.774910354102E-01  7.445487982440E-01  7.133497980902E-01
  6.837112939090E-01  6.554776358748E-01  6.285178060483E-01  6.027231860537E-01
  5.780052398920E-01  5.542933114409E-01  5.315317540157E-01  5.096743596949E-01
  4.886781157826E-01  4.685021633296E-01  4.491085503606E-01  4.304616422839E-01
  4.125280421686E-01  3.952764408651E-01  3.786774801699E-01  3.627036221683E-01
  3.473290246261E-01  3.325294224152E-01  3.182820149228E-01  3.045653593742E-01
  2.913592699819E-01  2.786447228182E-01  2.664037662920E-01  2.546194370980E-01
  2.432756814952E-01  2.323572817636E-01  2.218497876555E-01  2.117394527102E-01
  2.020131752119E-01  1.926584436291E-01  1.836632863409E-01  1.750162254601E-01
  1.667062345572E-01  1.587227000919E-01  1.510553863544E-01  1.436944037224E-01
  1.366301800397E-01  1.298534349240E-01  1.233551568151E-01  1.171265825782E-01
  1.111591794802E-01  1.054446293629E-01  9.997481483733E-02  9.474180733955E-02
  8.973785688157E-02  8.495538334449E-02  8.038696916635E-02  7.602535328271E-02
  7.186342618562E-02  6.789422597329E-02  6.411093526990E-02  6.050687890205E-02
  5.707552222564E-02  5.381047000365E-02  5.070546574283E-02  4.775439140380E-02
  4.495126740603E-02  4.229025285596E-02  3.976564593263E-02  3.737188437200E-02
  3.510354599664E-02  3.295534924386E-02  3.092215365049E-02  2.899896025823E-02
  2.718091190833E-02  2.546329339924E-02  2.384153148549E-02  2.231119470009E-02
  2.086799298693E-02  1.950777713314E-02  1.822653799487E-02  1.702040551289E-02
  1.588564751748E-02  1.481866832452E-02  1.381600712653E-02  1.287433618526E-02
  1.199045883354E-02  1.116130729587E-02  1.038394033838E-02  9.655540760075E-03
  8.973412737932E-03  8.334979039161E-03  7.737778114476E-03  7.179461086404E-03
  6.657788646921E-03  6.170627878639E-03  5.715949013672E-03  5.291822144045E-03
  4.896413897168E-03  4.527984089430E-03  4.184882370461E-03  3.865544869992E-03
  3.568490858588E-03  3.292319432839E-03  3.035706234838E-03  2.797400215006E-03
  2.576220446559E-03  2.371052999092E-03  2.180847877985E-03  2.004616035534E-03
  1.841426458947E-03  1.690403339577E-03  1.550723327052E-03  1.421612871258E-03
  1.302345654441E-03  1.192240115108E-03  1.090657064765E-03  9.969973980265E-04
  9.106998960820E-04  8.312391230707E-04  7.581234144745E-04  6.908929562721E-04
  6.291179532555E-04  5.723968846215E-04  5.203548446941E-04  4.726419664248E-04
  4.289319251367E-04  3.889205198421E-04  3.523243293519E-04  3.188794403202E-04
  2.883402443181E-04  2.604783010062E-04  2.350812644767E-04  2.119518698578E-04
  1.909069773073E-04  1.717766705839E-04  1.544034074454E-04  1.386412192079E-04
  1.243549568854E-04  1.114195814250E-04  9.971949565316E-05  8.914791565470E-05
  7.960627940504E-05  7.100369061905E-05  6.325639572516E-05  5.628729247091E-05
  5.002546784076E-05  4.440576400639E-05  3.936837080733E-05  3.485844312150E-05
  3.082574176592E-05  2.722429664971E-05  2.401209095526E-05  2.115076519494E-05
  1.860534005806E-05  1.634395702463E-05  1.433763578021E-05  1.256004751920E-05
  1.098730327319E-05  9.597756445968E-06  8.371818778870E-06  7.291789008189E-06
  6.341693512379E-06  5.507138279420E-06  4.775171555544E-06  4.134156565015E-06
  3.573653717553E-06  3.084311745239E-06  2.657767234735E-06  2.286552043495E-06
  1.964008110564E-06  1.684209193660E-06  1.441889084662E-06  1.232375875492E-06
  1.051531865734E-06  8.956987222689E-07  7.616475197498E-07  6.465333089178E-07
  5.478538776103E-07  4.634123868068E-07  3.912835812108E-07  3.297832906587E-07
  2.774409550586E-07  2.329749215701E-07  1.952702783139E-07  1.633590040235E-07
  1.364022276917E-07  1.136744063944E-07  9.454924307585E-08  7.848717912383E-08
  6.502430904426E-08  5.376257643617E-08  4.436112177038E-08  3.652866317668E-08
  3.001680154621E-08  2.461415075833E-08  2.014120275181E-08  1.644584548692E-08
  1.339945960161E-08  1.089352676564E-08  8.836689400275E-09  7.152207577341E-09
  5.775764562086E-09  4.653577642779E-09  3.740775620364E-09  3.000008638890E-09
  2.400259947204E-09  1.915832720052E-09  1.525488257638E-09  1.211714751768E-09
  9.601083784672E-10  7.588507749235E-10  5.982690056495E-10  4.704659405740E-10
  3.690105770661E-10  2.886792581729E-10  2.252399889544E-10  1.752731488399E-10
  1.360228563115E-10  1.052740776418E-10  8.125129740261E-11  6.253519738536E-11
  4.799433373358E-11  3.672926969836E-11  2.802702275446E-11  2.132402816145E-11
  1.617611387721E-11  1.223423067184E-11  9.224892252127E-12  6.934458411545E-12
  5.196544270942E-12  3.881964609182E-12  2.890727632690E-12  2.145680373576E-12
  1.587480905535E-12  1.170633030720E-12  8.603690036247E-13  6.302069217151E-13
  4.600430806373E-13  3.346671013799E-13  2.426100362575E-13  1.752538353972E-13
  1.261452502253E-13  9.046908840747E-14  6.464524420596E-14  4.602150994381E-14
  3.264026613918E-14  2.306191931721E-14  1.623178477699E-14  1.138009968106E-14
  7.947205882434E-15  5.527781416812E-15  3.829432300675E-15  2.642067742248E-15
  1.815340680539E-15  1.242096473079E-15  8.462790843376E-16  5.741307408824E-16
  3.878148742060E-16  2.608145809451E-16  1.746264455151E-16  1.163953460634E-16
  7.722983291584E-17  5.100756333240E-17  3.353203265233E-17  2.193999382178E-17
  1.428695232920E-17  9.258570793140E-18  5.970682023593E-18  3.831364422603E-18
  2.446278031781E-18  1.554009054041E-18  9.821283788033E-19  6.174755991071E-19
  0.000000000000E+00  0.000000000000E+00  0.000000000000E+00  0.000000000000E+00
  0.000000000000E+00  0.000000000000E+00
</data>
</radfunc>
</valence-charge>
<pseudocore-charge matching-radius="0.698500950434"
 number-of-continuous-derivatives="4">
<annotation model-charge-form="Teter function with specified parameters" />
<radfunc>
<data npts="291">
  1.222812428038E+02  1.222711214834E+02  1.222398918335E+02  1.221882017633E+02
  1.221163432206E+02  1.220218716300E+02  1.219014930558E+02  1.217636825036E+02
  1.216087717562E+02  1.214281780864E+02  1.212246913843E+02  1.210036034466E+02
  1.207365287091E+02  1.204577402320E+02  1.201793843441E+02  1.198589394680E+02
  1.194901740857E+02  1.191408572630E+02  1.187484304768E+02  1.183077364841E+02
  1.178130448845E+02  1.173741648997E+02  1.168931081912E+02  1.163660157380E+02
  1.157887161626E+02  1.151567092056E+02  1.144651503827E+02  1.139042846606E+02
  1.133046719229E+02  1.126638631308E+02  1.119792894819E+02  1.112482622269E+02
  1.104679736214E+02  1.096354992323E+02  1.087478018452E+02  1.078017372470E+02
  1.067940621931E+02  1.057214448953E+02  1.049686078426E+02  1.041843698847E+02
  1.033676972990E+02  1.025175502895E+02  1.016328863200E+02  1.007126638584E+02
  9.975584656305E+01  9.876140794016E+01  9.772833650277E+01  9.665564146226E+01
  9.554235898124E+01  9.438755901683E+01  9.319035278111E+01  9.194990084352E+01
  9.066542189681E+01  8.933620220390E+01  8.796160573856E+01  8.654108502611E+01
  8.507419268324E+01  8.356059364717E+01  8.200007807385E+01  8.039257487288E+01
  7.873816583280E+01  7.703710027463E+01  7.528981015319E+01  7.349692550606E+01
  7.165929012721E+01  6.977797731792E+01  6.785430554099E+01  6.687706788403E+01
  6.588985377497E+01  6.489290372406E+01  6.388647633500E+01  6.287084871981E+01
  6.184631689424E+01  6.081319615078E+01  5.977182140673E+01  5.872254752410E+01
  5.766574959864E+01  5.660182321448E+01  5.553118466126E+01  5.445427111035E+01
  5.337154074645E+01  5.228347285130E+01  5.119056783531E+01  5.009334721379E+01
  4.899235352372E+01  4.788815017711E+01  4.678132124732E+01  4.567247118410E+01
  4.456222445370E+01  4.345122510018E+01  4.234013622400E+01  4.122963937440E+01
  4.012043385195E+01  3.901323591796E+01  3.790877790753E+01  3.680780724342E+01
  3.571108534811E+01  3.461938645174E+01  3.353349629417E+01  3.245421071959E+01
  3.138233416279E+01  3.031867802671E+01  2.926405895140E+01  2.821929697531E+01
  2.718521359032E+01  2.616262969308E+01  2.515236343546E+01  2.415522797843E+01
  2.317202915417E+01  2.220356304228E+01  2.125061346711E+01  2.031394942421E+01
  1.939432244489E+01  1.849246390924E+01  1.760908231883E+01  1.674486054168E+01
  1.590045304321E+01  1.507648311777E+01  1.427354013692E+01  1.349217683122E+01
  1.273290662375E+01  1.199620103407E+01  1.128248717263E+01  1.059214534615E+01
  9.925506794915E+00  9.282851584013E+00  8.664406670020E+00  8.070344165444E+00
  7.500779822689E+00  6.955771759139E+00  6.435319444296E+00  5.939362969046E+00
  5.467782615956E+00  5.020398748023E+00  4.596972031527E+00  4.197204006517E+00
  3.820738016029E+00  3.467160502370E+00  3.136002675738E+00  2.826742557034E+00
  2.538807393093E+00  2.271576438584E+00  2.024384094724E+00  1.796523390542E+00
  1.587249788030E+00  1.395785287878E+00  1.221322807992E+00  1.063030802415E+00
  9.200580839519E-01  7.915388095960E-01  6.765975840440E-01  5.743546331285E-01
  4.839309960663E-01  4.044536830686E-01  3.350607432002E-01  2.749061864808E-01
  2.231647041844E-01  1.790361321649E-01  1.417496038892E-01  1.105673427127E-01
  8.478804681845E-02  6.374982514382E-02  4.683264851909E-02  3.346028706877E-02
  2.310171260966E-02  1.527195319186E-02  9.532395933866E-03  5.490543725524E-03
  2.799241015925E-03  1.155393547483E-03  2.982163031001E-04  7.052850614223E-06
  9.881744109504E-05  4.251183915988E-04  8.691272165035E-04  1.342262443300E-03
  1.780759868130E-03  2.142202023420E-03  2.402078744306E-03  2.550447890094E-03
  2.588760524229E-03  2.526908273701E-03  2.380542340537E-03  2.168703959631E-03
  1.911795291037E-03  1.629908163165E-03  1.341516156231E-03  1.062523676398E-03
  8.056543793455E-04  5.801510113352E-04  3.917498725343E-04  2.428860475170E-04
  1.330805946608E-04  5.945824991026E-05  1.734398151894E-05  8.889097980339E-07
  3.680531413783E-06  1.929858813603E-05  4.178590678071E-05  6.601262527819E-05
  8.792185357034E-05  1.046544039672E-04  1.145591706082E-04  1.171034897440E-04
  1.127039011523E-04  1.025018040520E-04  8.811035484568E-05  7.135855397120E-05
  5.405595603685E-05  3.779712097231E-05  2.381926022610E-05  1.292008681632E-05
  5.436277806097E-06  1.276832657600E-06  5.342607325649E-10  9.231501860475E-07
  3.238245986797E-06  6.135620177805E-06  8.903302580161E-06  1.100247545507E-05
  1.210910596562E-05  1.212093387160E-05  1.113311475845E-05  9.389689823046E-06
  7.220666669571E-06  4.975559143209E-06  2.963675954658E-06  1.409427941553E-06
  4.278127481107E-07  2.155986547056E-08  0.000000000000E+00  0.000000000000E+00
  0.000000000000E+00  0.000000000000E+00  0.000000000000E+00  0.000000000000E+00
  0.000000000000E+00  0.000000000000E+00  0.000000000000E+00  0.000000000000E+00
  0.000000000000E+00  0.000000000000E+00  0.000000000000E+00  0.000000000000E+00
  0.000000000000E+00  0.000000000000E+00  0.000000000000E+00  0.000000000000E+00
  0.000000000000E+00  0.000000000000E+00  0.000000000000E+00  0.000000000000E+00
  0.000000000000E+00  0.000000000000E+00  0.000000000000E+00  0.000000000000E+00
  0.000000000000E+00  0.000000000000E+00  0.000000000000E+00  0.000000000000E+00
  0.000000000000E+00  0.000000000000E+00  0.000000000000E+00  0.000000000000E+00
  0.000000000000E+00  0.000000000000E+00  0.000000000000E+00  0.000000000000E+00
  0.000000000000E+00  0.000000000000E+00  0.000000000000E+00  0.000000000000E+00
  0.000000000000E+00  0.000000000000E+00  0.000000000000E+00  0.000000000000E+00
  0.000000000000E+00  0.000000000000E+00  0.000000000000E+00  0.000000000000E+00
  0.000000000000E+00  0.000000000000E+00  0.000000000000E+00  0.000000000000E+00
  0.000000000000E+00  0.000000000000E+00  0.000000000000E+00  0.000000000000E+00
  0.000000000000E+00  0.000000000000E+00  0.000000000000E+00
</data>
</radfunc>
</pseudocore-charge>
<semilocal-potentials set="scalar_relativistic">
<slps n="4" l="s" rc="1.66856993556" eref="-0.337000701090">
<radfunc>
<data npts="291">
  8.056289943008E+01  8.048899675539E+01  8.026165095739E+01  7.988761729912E+01
  7.937227190245E+01  7.870281830657E+01  7.786278422424E+01  7.691855131939E+01
  7.587874808253E+01  7.469446952129E+01  7.339475789370E+01  7.202260669968E+01
  7.041805788165E+01  6.880195512631E+01  6.724517527427E+01  6.551946980565E+01
  6.361641452099E+01  6.189047039668E+01  6.003483933491E+01  5.804902761509E+01
  5.593444353642E+01  5.415236120936E+01  5.229295309434E+01  5.036007338525E+01
  4.835857849138E+01  4.629431865581E+01  4.417410204882E+01  4.255181972368E+01
  4.090592683763E+01  3.924019875268E+01  3.755860428086E+01  3.586526939349E+01
  3.416443767535E+01  3.246042831520E+01  3.075759251457E+01  2.906026925678E+01
  2.737274140420E+01  2.569919308199E+01  2.459326500178E+01  2.349650780709E+01
  2.241003838841E+01  2.133493001852E+01  2.027220859919E+01  1.922284933469E+01
  1.818777385182E+01  1.716784778034E+01  1.616387880140E+01  1.517661516621E+01
  1.420674468125E+01  1.325489415135E+01  1.232162926729E+01  1.140745492018E+01
  1.051281592120E+01  9.638098102212E+00  8.783629769951E+00  7.949683484698E+00
  7.136478132623E+00  6.344181260064E+00  5.572911637483E+00  4.822742020651E+00
  4.093702076891E+00  3.385781444741E+00  2.698932896138E+00  2.033075571221E+00
  1.388098256915E+00  7.638626815725E-01  1.602067991369E-01 -1.339600969494E-01
 -4.230519626426E-01 -7.070943036201E-01 -9.861135143791E-01 -1.260136783567E+00
 -1.529192001160E+00 -1.793307667653E+00 -2.052512805447E+00 -2.306836872594E+00
 -2.556309679076E+00 -2.800961305784E+00 -3.040822026375E+00 -3.275922232180E+00
 -3.506292360320E+00 -3.731962825237E+00 -3.952963953786E+00 -4.169325924091E+00
 -4.381078708330E+00 -4.588252019655E+00 -4.790875263412E+00 -4.988977492870E+00
 -5.182587369647E+00 -5.371733129018E+00 -5.556442550320E+00 -5.736742932635E+00
 -5.912661075958E+00 -6.084223268044E+00 -6.251455277116E+00 -6.414382350641E+00
 -6.573029220344E+00 -6.727420113625E+00 -6.877578771561E+00 -7.023528473617E+00
 -7.165292069209E+00 -7.302892016224E+00 -7.436350426565E+00 -7.565689118801E+00
 -7.690929677907E+00 -7.812093522095E+00 -7.929201976671E+00 -8.042276354791E+00
 -8.151338044957E+00 -8.256408605030E+00 -8.357509862450E+00 -8.454664020328E+00
 -8.547893768943E+00 -8.637222402144E+00 -8.722673938051E+00 -8.804273243358E+00
 -8.882046160463E+00 -8.956019636539E+00 -9.026221853568E+00 -9.092682358273E+00
 -9.155432190764E+00 -9.214504010624E+00 -9.269932219075E+00 -9.321753075750E+00
 -9.370004808516E+00 -9.414727714717E+00 -9.455964252112E+00 -9.493759117726E+00
 -9.528159312768E+00 -9.559214191721E+00 -9.586975493681E+00 -9.611497353994E+00
 -9.632836294249E+00 -9.651051188693E+00 -9.666203205191E+00 -9.678355718893E+00
 -9.687574196900E+00 -9.693926052312E+00 -9.697480466221E+00 -9.698308176423E+00
 -9.696481231828E+00 -9.692072711898E+00 -9.685156410730E+00 -9.675806485869E+00
 -9.664097072351E+00 -9.650101863049E+00 -9.633893656983E+00 -9.615543877929E+00
 -9.595122066385E+00 -9.572695348729E+00 -9.548327888230E+00 -9.522080323339E+00
 -9.494009199500E+00 -9.464166401405E+00 -9.432598593118E+00 -9.399346673910E+00