<?xml version="1.0" encoding="UTF-8" ?>
<psml version="1.1" energy_unit="hartree" length_unit="bohr"
 uuid="c4d96a40-23d1-11e8-69b6-c18eff5d81ce"
 xmlns="http://esl.cecam.org/PSML/ns/1.1">
<provenance creator="ONCVPSP-3.3.0+psml-3.3.0-73 (scalar-relativistic)"
 date="2018-03-09">
<annotation action="semilocal-pseudopotential-generation"
 action-cont="projectors-generation" />
<input-file name="oncvpsp-input">
<![CDATA[# atsym z nc nv iexc psfile
H 1 0 1 -001012 upf
# n l f
1 0 1.0
# lmax
1
# l rc ep ncon nbas qcut
0 1.0 0.0 4 7 8.5
1 0.9 0.05 4 7 11.0
# lloc lpopt rc5 dvloc0
4 5 0.7 0.0
# l nproj debl
0 2 1.0
1 1 1.0
# icmod fcfact rcfact
0 0.25 0.0
# epsh1 epsh2 depsh
-12.0 12.0 0.02
# rlmax drl
3.0 0.01
 0
]]>
</input-file>
</provenance>
<pseudo-atom-spec atomic-label="H" atomic-number="1" z-pseudo="1"
 flavor="Hamann&apos;s oncvpsp" relativity="scalar" spin-dft="no"
 core-corrections="no">
<annotation pseudo-energy="-0.445555392449" />
<exchange-correlation>
<annotation oncvpsp-xc-code="-1012" oncvpsp-xc-type="libxc-interface" />
<libxc-info number-of-functionals="2">
<functional name="Slater exchange (LDA)" type="exchange" id="1" />
<functional name="Perdew &amp; Wang (LDA)" type="correlation" id="12" />
</libxc-info>
</exchange-correlation>
<valence-configuration total-valence-charge="1">
<shell n="1" l="s" occupation="1" />
</valence-configuration>
</pseudo-atom-spec>
<grid npts="457">
<annotation type="sampled from oncvpsp log grid"
 recipe="r(i:1..N) = r1*exp(a*(i-1)) + r=0; resampled"
 recipe-cont="r1: scale; a: step" scale="0.500000000000E-03"
 step="0.119285708653E-01" delta="0.500000000000E-02" rmax="44.2954833909" />
<grid-data>
  0.000000000000E+00  5.058123513090E-03  1.010320477012E-02  1.515641821668E-02
  2.018035865727E-02  2.531387423390E-02  3.063704102628E-02  3.577613994437E-02
  4.079238691286E-02  4.596044693552E-02  5.116922694735E-02  5.629281359158E-02
  6.192942616304E-02  6.732256330795E-02  7.318536293912E-02  7.861534161388E-02
  8.444819686430E-02  8.963816212109E-02  9.514708906524E-02  1.009945802476E-01
  1.072014429406E-01  1.124404774478E-01  1.179355484579E-01  1.236991687138E-01
  1.297444624675E-01  1.360851953657E-01  1.427358057947E-01  1.479362033189E-01
  1.533260707120E-01  1.589123110676E-01  1.647020789849E-01  1.707027897317E-01
  1.769221287416E-01  1.833680614574E-01  1.900488435324E-01  1.969730314044E-01
  2.041494932539E-01  2.115874203624E-01  2.166959870397E-01  2.219278949507E-01
  2.272861220464E-01  2.327737181771E-01  2.383938068288E-01  2.441495869009E-01
  2.500443345270E-01  2.560814049398E-01  2.622642343807E-01  2.685963420556E-01
  2.750813321382E-01  2.817228958213E-01  2.885248134180E-01  2.954909565132E-01
  3.026252901672E-01  3.099318751730E-01  3.174148703672E-01  3.250785349974E-01
  3.329272311463E-01  3.409654262151E-01  3.491976954657E-01  3.576287246250E-01
  3.662633125523E-01  3.751063739706E-01  3.841629422638E-01  3.934381723418E-01
  4.029373435748E-01  4.126658627981E-01  4.226292673895E-01  4.277008185981E-01
  4.328332284213E-01  4.380272271624E-01  4.432835538883E-01  4.486029565350E-01
  4.539861920134E-01  4.594340263175E-01  4.649472346334E-01  4.705266014490E-01
  4.761729206663E-01  4.818869957143E-01  4.876696396629E-01  4.935216753389E-01
  4.994439354429E-01  5.054372626683E-01  5.115025098203E-01  5.176405399381E-01
  5.238522264174E-01  5.301384531344E-01  5.365001145720E-01  5.429381159469E-01
  5.494533733382E-01  5.560468138183E-01  5.627193755841E-01  5.694720080911E-01
  5.763056721882E-01  5.832213402545E-01  5.902199963375E-01  5.973026362936E-01
  6.044702679291E-01  6.117239111442E-01  6.190645980780E-01  6.264933732549E-01
  6.340112937340E-01  6.416194292588E-01  6.493188624099E-01  6.571106887588E-01
  6.649960170239E-01  6.729759692282E-01  6.810516808589E-01  6.892243010292E-01
  6.974949926416E-01  7.058649325533E-01  7.143353117439E-01  7.229073354848E-01
  7.315822235107E-01  7.403612101928E-01  7.492455447151E-01  7.582364912517E-01
  7.673353291467E-01  7.765433530965E-01  7.858618733336E-01  7.952922158136E-01
  8.048357224034E-01  8.144937510722E-01  8.242676760851E-01  8.341588881981E-01
  8.441687948565E-01  8.542988203948E-01  8.645504062395E-01  8.749250111144E-01
  8.854241112478E-01  8.960492005827E-01  9.068017909897E-01  9.176834124816E-01
  9.286956134314E-01  9.398399607926E-01  9.511180403221E-01  9.625314568059E-01
  9.740818342876E-01  9.857708162991E-01  9.976000660946E-01  1.009571266888E+00
  1.021686122090E+00  1.033946355556E+00  1.046353711822E+00  1.058909956364E+00
  1.071616875840E+00  1.084476278350E+00  1.097489993691E+00  1.110659873615E+00
  1.123987792098E+00  1.137475645604E+00  1.151125353351E+00  1.164938857591E+00
  1.178918123882E+00  1.193065141369E+00  1.207381923065E+00  1.221870506142E+00
  1.236532952216E+00  1.251371347642E+00  1.266387803814E+00  1.281584457460E+00
  1.296963470949E+00  1.312527032601E+00  1.328277356992E+00  1.344216685276E+00
  1.360347285499E+00  1.376671452925E+00  1.393191510360E+00  1.409909808484E+00
  1.426828726186E+00  1.443950670900E+00  1.461278078951E+00  1.478813415899E+00
  1.496559176889E+00  1.514517887012E+00  1.532692101656E+00  1.551084406876E+00
  1.569697419759E+00  1.588533788796E+00  1.607596194261E+00  1.626887348592E+00
  1.646409996776E+00  1.666166916737E+00  1.686160919738E+00  1.706394850775E+00
  1.726871588984E+00  1.747594048052E+00  1.768565176628E+00  1.789787958748E+00
  1.811265414253E+00  1.833000599224E+00  1.854996606414E+00  1.877256565691E+00
  1.899783644480E+00  1.922581048214E+00  1.945652020792E+00  1.968999845042E+00
  1.992627843182E+00  2.016539377300E+00  2.040737849828E+00  2.065226704026E+00
  2.090009424474E+00  2.115089537568E+00  2.140470612019E+00  2.166156259363E+00
  2.192150134475E+00  2.218455936089E+00  2.245077407322E+00  2.272018336210E+00
  2.299282556244E+00  2.326873946919E+00  2.354796434282E+00  2.383053991494E+00
  2.411650639392E+00  2.440590447064E+00  2.469877532429E+00  2.499516062818E+00
  2.529510255572E+00  2.559864378639E+00  2.590582751183E+00  2.621669744197E+00
  2.653129781127E+00  2.684967338501E+00  2.717186946563E+00  2.749793189921E+00
  2.782790708200E+00  2.816184196699E+00  2.849978407059E+00  2.884178147944E+00
  2.918788285719E+00  2.953813745148E+00  2.989259510090E+00  3.025130624211E+00
  3.061432191701E+00  3.098169378002E+00  3.135347410538E+00  3.172971579464E+00
  3.211047238418E+00  3.249579805279E+00  3.288574762942E+00  3.328037660097E+00
  3.367974112019E+00  3.408389801363E+00  3.449290478979E+00  3.490681964727E+00
  3.532570148304E+00  3.574960990083E+00  3.617860521964E+00  3.661274848228E+00
  3.705210146407E+00  3.749672668164E+00  3.794668740181E+00  3.840204765064E+00
  3.886287222244E+00  3.932922668911E+00  3.980117740938E+00  4.027879153830E+00
  4.076213703676E+00  4.125128268120E+00  4.174629807337E+00  4.224725365025E+00
  4.275422069405E+00  4.326727134238E+00  4.378647859849E+00  4.431191634167E+00
  4.484365933777E+00  4.538178324983E+00  4.592636464882E+00  4.647748102461E+00
  4.703521079691E+00  4.759963332647E+00  4.817082892639E+00  4.874887887350E+00
  4.933386541998E+00  4.992587180502E+00  5.052498226668E+00  5.113128205389E+00
  5.174485743853E+00  5.236579572779E+00  5.299418527653E+00  5.363011549985E+00
  5.427367688584E+00  5.492496100847E+00  5.558406054058E+00  5.625106926706E+00
  5.692608209827E+00  5.760919508345E+00  5.830050542445E+00  5.900011148954E+00
  5.970811282742E+00  6.042461018134E+00  6.114970550352E+00  6.188350196956E+00
  6.262610399320E+00  6.337761724112E+00  6.413814864801E+00  6.490780643179E+00
  6.568670010897E+00  6.647494051028E+00  6.727263979640E+00  6.807991147396E+00
  6.889687041164E+00  6.972363285658E+00  7.056031645086E+00  7.140704024827E+00
  7.226392473125E+00  7.313109182803E+00  7.400866492996E+00  7.489676890912E+00
  7.579553013603E+00  7.670507649766E+00  7.762553741564E+00  7.855704386462E+00
  7.949972839100E+00  8.045372513169E+00  8.141916983327E+00  8.239619987127E+00
  8.338495426973E+00  8.438557372096E+00  8.539820060561E+00  8.642297901288E+00
  8.746005476104E+00  8.850957541817E+00  8.957169032319E+00  9.064655060706E+00
  9.173430921435E+00  9.283512092492E+00  9.394914237602E+00  9.507653208453E+00
  9.621745046955E+00  9.737205987518E+00  9.854052459368E+00  9.972301088881E+00
  1.009196870195E+01  1.021307232637E+01  1.033562919429E+01  1.045965674462E+01
  1.058517262555E+01  1.071219469706E+01  1.084074103343E+01  1.097082992583E+01
  1.110247988494E+01  1.123570964356E+01  1.137053815928E+01  1.150698461719E+01
  1.164506843260E+01  1.178480925379E+01  1.192622696483E+01  1.206934168841E+01
  1.221417378867E+01  1.236074387414E+01  1.250907280063E+01  1.265918167423E+01
  1.281109185432E+01  1.296482495658E+01  1.312040285605E+01  1.327784769033E+01
  1.343718186261E+01  1.359842804496E+01  1.376160918150E+01  1.392674849168E+01
  1.409386947358E+01  1.426299590726E+01  1.443415185815E+01  1.460736168045E+01
  1.478265002061E+01  1.496004182086E+01  1.513956232271E+01  1.532123707058E+01
  1.550509191543E+01  1.569115301842E+01  1.587944685464E+01  1.607000021689E+01
  1.626284021949E+01  1.645799430213E+01  1.665549023375E+01  1.685535611656E+01
  1.705762038996E+01  1.726231183464E+01  1.746945957665E+01  1.767909309157E+01
  1.789124220867E+01  1.810593711518E+01  1.832320836056E+01  1.854308686088E+01
  1.876560390322E+01  1.899079115005E+01  1.921868064385E+01  1.944930481158E+01
  1.968269646932E+01  1.991888882695E+01  2.015791549288E+01  2.039981047879E+01
  2.064460820454E+01  2.089234350299E+01  2.114305162503E+01  2.139676824453E+01
  2.165352946346E+01  2.191337181702E+01  2.217633227883E+01  2.244244826617E+01
  2.271175764537E+01  2.298429873711E+01  2.326011032196E+01  2.353923164582E+01
  2.382170242557E+01  2.410756285468E+01  2.439685360893E+01  2.468961585224E+01
  2.498589124247E+01  2.528572193738E+01  2.558915060062E+01  2.589622040783E+01
  2.620697505273E+01  2.652145875336E+01  2.683971625840E+01  2.716179285350E+01
  2.748773436774E+01  2.781758718015E+01  2.815139822632E+01  2.848921500503E+01
  2.883108558509E+01  2.917705861211E+01  2.952718331546E+01  2.988150951524E+01
  3.024008762943E+01  3.060296868098E+01  3.097020430515E+01  3.134184675681E+01
  3.171794891790E+01  3.209856430491E+01  3.248374707657E+01  3.287355204149E+01
  3.326803466599E+01  3.366725108198E+01  3.407125809496E+01  3.448011319210E+01
  3.489387455041E+01  3.531260104501E+01  3.573635225755E+01  3.616518848464E+01
  3.659917074646E+01  3.703836079541E+01  3.748282112496E+01  3.793261497846E+01
  3.838780635820E+01  3.884846003450E+01  3.931464155491E+01  3.978641725357E+01
  4.026385426062E+01  4.074702051174E+01  4.123598475788E+01  4.173081657498E+01
  4.223158637388E+01  4.273836541036E+01  4.325122579529E+01  4.377024050483E+01
  4.429548339089E+01
</grid-data>
</grid>
<valence-charge total-charge="1" is-unscreening-charge="yes"
 rescaled-to-z-pseudo="no">
<radfunc>
<data npts="457">
  2.259401963436E+00  2.259248814139E+00  2.258790058746E+00  2.258024729104E+00
  2.256960990141E+00  2.255562916198E+00  2.253782137909E+00  2.251744438371E+00
  2.249455104407E+00  2.246787834890E+00  2.243784526960E+00  2.240523925654E+00
  2.236588550689E+00  2.232484565796E+00  2.227651311589E+00  2.222833041215E+00
  2.217295428243E+00  2.212056936339E+00  2.206180091572E+00  2.199590599220E+00
  2.192206424042E+00  2.185666492605E+00  2.178509995429E+00  2.170682816706E+00
  2.162126890332E+00  2.152780072055E+00  2.142576043001E+00  2.134318196220E+00
  2.125507242661E+00  2.116110523230E+00  2.106094072366E+00  2.095422656678E+00
  2.084059830135E+00  2.071968007860E+00  2.059108560670E+00  2.045441932559E+00
  2.030927783375E+00  2.015525158968E+00  2.004742726846E+00  1.993534721967E+00
  1.981888829105E+00  1.969792767968E+00  1.957234333778E+00  1.944201441221E+00
  1.930682171864E+00  1.916664825165E+00  1.902137973183E+00  1.887090519099E+00
  1.871511759672E+00  1.855391451743E+00  1.838719882914E+00  1.821487946539E+00
  1.803687221176E+00  1.785310054662E+00  1.766349652980E+00  1.746800174117E+00
  1.726656827111E+00  1.705915976488E+00  1.684575252314E+00  1.662633666029E+00
  1.640091732221E+00  1.616951596434E+00  1.593217168964E+00  1.568894264479E+00
  1.543990747069E+00  1.518516680028E+00  1.492484479304E+00  1.479263640375E+00
  1.465909069080E+00  1.452423048382E+00  1.438808037323E+00  1.425066675677E+00
  1.411201788464E+00  1.397216390297E+00  1.383113689510E+00  1.368897092032E+00
  1.354570204939E+00  1.340136839649E+00  1.325601014682E+00  1.310966957928E+00
  1.296239108359E+00  1.281422117098E+00  1.266520847779E+00  1.251540376118E+00
  1.236485988594E+00  1.221363180178E+00  1.206177651004E+00  1.190935301891E+00
  1.175642228647E+00  1.160304715041E+00  1.144929224383E+00  1.129522389615E+00
  1.114091001842E+00  1.098641997248E+00  1.083182442334E+00  1.067719517424E+00
  1.052260498440E+00  1.036812736903E+00  1.021383638196E+00  1.005980638097E+00
  9.906111776604E-01  9.752826765136E-01  9.600025046948E-01  9.447779531687E-01
  9.296162032067E-01  9.145242948442E-01  8.995090946703E-01  8.845772632391E-01
  8.697352224335E-01  8.549891231493E-01  8.403448137011E-01  8.258078093919E-01
  8.113832637121E-01  7.970759416643E-01  7.828901957326E-01  7.688299450295E-01
  7.548986581614E-01  7.410993403525E-01  7.274345253524E-01  7.139062726263E-01
  7.005161702896E-01  6.872653441903E-01  6.741544734728E-01  6.611838128655E-01
  6.483532218263E-01  6.356622005520E-01  6.231099327115E-01  6.106953345966E-01
  5.984171102022E-01  5.862738115533E-01  5.742639033862E-01  5.623858310800E-01
  5.506380905194E-01  5.390192983618E-01  5.275282609892E-01  5.161640402533E-01
  5.049260139880E-01  4.938139291680E-01  4.828279455549E-01  4.719686676968E-01
  4.612371258210E-01  4.506345886544E-01  4.401622870680E-01  4.298213667486E-01
  4.196129342143E-01  4.095380340227E-01  3.995976513702E-01  3.897927109120E-01
  3.801240759787E-01  3.705925478587E-01  3.611988651357E-01  3.519437030855E-01
  3.428276731319E-01  3.338513223647E-01  3.250151331191E-01  3.163195226188E-01
  3.077648426837E-01  2.993513795025E-01  2.910793534714E-01  2.829489190994E-01
  2.749601649812E-01  2.671131138376E-01  2.594077226239E-01  2.518438827069E-01
  2.444214201103E-01  2.371400958288E-01  2.299996062100E-01  2.229995834055E-01
  2.161395958889E-01  2.094191490419E-01  2.028376858070E-01  1.963945874068E-01
  1.900891741277E-01  1.839207061695E-01  1.778883845575E-01  1.719913521172E-01
  1.662286945102E-01  1.605994413299E-01  1.551025672552E-01  1.497369932613E-01
  1.445015878855E-01  1.393951685458E-01  1.344165029117E-01  1.295643103238E-01
  1.248372632617E-01  1.202339888560E-01  1.157530704448E-01  1.113930491699E-01
  1.071524256121E-01  1.030296614624E-01  9.902318122686E-02  9.513137396243E-02
  9.135259504120E-02  8.768516794050E-02  8.412738605616E-02  8.067751453607E-02
  7.733379213147E-02  7.409443306298E-02  7.095762889878E-02  6.792155044193E-02
  6.498434962409E-02  6.214416140275E-02  5.939910565921E-02  5.674728909431E-02
  5.418680711882E-02  5.171574573777E-02  4.933218342147E-02  4.703419296502E-02
  4.481984333119E-02  4.268720147456E-02  4.063433414416E-02  3.865930966200E-02
  3.676019967500E-02  3.493508087773E-02  3.318203670353E-02  3.149915898172E-02
  2.988454955847E-02  2.833632187917E-02  2.685260253012E-02  2.543153273754E-02
  2.407126982177E-02  2.276998860504E-02  2.152588277069E-02  2.033716617248E-02
  1.920207409216E-02  1.811886444406E-02  1.708581892510E-02  1.610124410920E-02
  1.516347248485E-02  1.427086343488E-02  1.342180415753E-02  1.261471052811E-02
  1.184802790064E-02  1.112023184891E-02  1.042982884674E-02  9.775356887020E-03
  9.155386039676E-03  8.568518948438E-03  8.013391266657E-03  7.488672032498E-03
  6.993063983927E-03  6.525303814116E-03  6.084162367937E-03  5.668444780429E-03
  5.276990558183E-03  4.908673604750E-03  4.562402191282E-03  4.237118873744E-03
  3.931800358130E-03  3.645457315249E-03  3.377134146724E-03  3.125908703951E-03
  2.890891961881E-03  2.671227649529E-03  2.466091839227E-03  2.274692496697E-03
  2.096268994078E-03  1.930091588114E-03  1.775460865729E-03  1.631707159293E-03
  1.498189933882E-03  1.374297148876E-03  1.259444596247E-03  1.153075217897E-03
  1.054658404411E-03  9.636892775606E-04  8.796879588949E-04  8.021988267214E-04
  7.307897637354E-04  6.650513975254E-04  6.045963361270E-04  5.490584007373E-04
  4.980918576413E-04  4.513706513290E-04  4.085876407046E-04  3.694538402092E-04
  3.336976675878E-04  3.010641999437E-04  2.713144396246E-04  2.442245913887E-04
  2.195853521959E-04  1.972012148670E-04  1.768897867490E-04  1.584811244180E-04
  1.418170853457E-04  1.267506973510E-04  1.131455465509E-04  1.008751844234E-04
  8.982255449391E-05  7.987943905481E-05  7.094592623501E-05  6.292989764084E-05
  5.574653670130E-05  4.931785776517E-05  4.357225591634E-05  3.844407739738E-05
  3.387321045964E-05  2.980469639145E-05  2.618836041451E-05  2.297846208205E-05
  2.013336476141E-05  1.761522373750E-05  1.538969243350E-05  1.342564620914E-05
  1.169492316700E-05  1.017208137167E-05  8.834171865917E-06  7.660526852238E-06
  6.632562396227E-06  5.733595001091E-06  4.948671398849E-06  4.264410904068E-06
  3.668859679459E-06  3.151356269350E-06  2.702407766577E-06  2.313575990401E-06
  1.977373067406E-06  1.687165823717E-06  1.437088414937E-06  1.221962639794E-06
  1.037225404212E-06  8.788628243103E-07  7.433504792693E-07  6.275993480222E-07
  5.289069870520E-07  4.449135300161E-07  3.735621133434E-07  3.130633551684E-07
  2.618635378587E-07  2.186161668264E-07  1.821566001874E-07  1.514794650521E-07
  1.257185967134E-07  1.041292566917E-07  8.607240443353E-08  7.100081542127E-08
  5.844685549416E-08  4.801173729700E-08  3.935609995428E-08  3.219176731482E-08
  2.627455343560E-08  2.139799638989E-08  1.738791301519E-08  1.409767788872E-08
  1.140413966272E-08  9.204096943358E-09  7.411264192061E-09  5.953665705973E-09
  4.771402634385E-09  3.814744251627E-09  3.042500374648E-09  2.420636926245E-09
  1.921101242526E-09  1.520827844953E-09  1.200899080979E-09  9.458383193481E-10
  7.430163013982E-10  5.821538311652E-10  4.549062660243E-10  3.545172752137E-10
  2.755310932705E-10  2.135540345404E-10  1.650573769896E-10  1.272148901487E-10
  9.776929294916E-11  7.492280049626E-11  5.724767084403E-11  4.361330838759E-11
  3.312703288572E-11  2.508609430687E-11  1.893891430666E-11  1.425387466350E-11
  1.069425980313E-11  7.998202026048E-12  5.962680703751E-12  4.430796211525E-12
  3.281680664678E-12  2.422524917058E-12  1.782298478826E-12  1.306819212391E-12
  9.548956142390E-13  6.953185298172E-13  5.045232733926E-13  3.647790258880E-13
  2.627914889700E-13  1.886282840794E-13  1.348955066819E-13  9.610901820610E-14
  6.821617850876E-14  4.823336765511E-14  3.397229327333E-14  2.383411946840E-14
  1.665520484237E-14  1.159195962170E-14  8.035242914721E-15  5.546962239167E-15
  0.000000000000E+00  0.000000000000E+00  0.000000000000E+00  0.000000000000E+00
  0.000000000000E+00  0.000000000000E+00  0.000000000000E+00  0.000000000000E+00
  0.000000000000E+00  0.000000000000E+00  0.000000000000E+00  0.000000000000E+00
  0.000000000000E+00  0.000000000000E+00  0.000000000000E+00  0.000000000000E+00
  0.000000000000E+00  0.000000000000E+00  0.000000000000E+00  0.000000000000E+00
  0.000000000000E+00  0.000000000000E+00  0.000000000000E+00  0.000000000000E+00
  0.000000000000E+00  0.000000000000E+00  0.000000000000E+00  0.000000000000E+00
  0.000000000000E+00  0.000000000000E+00  0.000000000000E+00  0.000000000000E+00
  0.000000000000E+00  0.000000000000E+00  0.000000000000E+00  0.000000000000E+00
  0.000000000000E+00  0.000000000000E+00  0.000000000000E+00  0.000000000000E+00
  0.000000000000E+00  0.000000000000E+00  0.000000000000E+00  0.000000000000E+00
  0.000000000000E+00  0.000000000000E+00  0.000000000000E+00  0.000000000000E+00
  0.000000000000E+00  0.000000000000E+00  0.000000000000E+00  0.000000000000E+00
  0.000000000000E+00  0.000000000000E+00  0.000000000000E+00  0.000000000000E+00
  0.000000000000E+00  0.000000000000E+00  0.000000000000E+00  0.000000000000E+00
  0.000000000000E+00
</data>
</radfunc>
</valence-charge>
<semilocal-potentials set="scalar_relativistic">
<slps n="1" l="s" rc="1.00957126689" eref="-0.233458545509">
<radfunc>
<data npts="232">
 -4.506874435185E+00 -4.506457730552E+00 -4.505212521118E+00 -4.503136469837E+00
 -4.500252910491E+00 -4.496466394781E+00 -4.491648841506E+00 -4.486143740628E+00
 -4.479968361228E+00 -4.472786245864E+00 -4.464715673388E+00 -4.455973338278E+00
 -4.445449016987E+00 -4.434505473707E+00 -4.421658738308E+00 -4.408896410664E+00
 -4.394283643058E+00 -4.380514179665E+00 -4.365129158193E+00 -4.347956775191E+00
 -4.328811540887E+00 -4.311941581425E+00 -4.293573883062E+00 -4.273595420169E+00
 -4.251888566787E+00 -4.228331721748E+00 -4.202800126363E+00 -4.182279215252E+00
 -4.160522231713E+00 -4.137475318396E+00 -4.113085064833E+00 -4.087298928878E+00
 -4.060065689776E+00 -4.031335924633E+00 -4.001062496317E+00 -3.969201036348E+00
 -3.935710400991E+00 -3.900553072578E+00 -3.876172161747E+00 -3.851026553249E+00
 -3.825108132817E+00 -3.798409592888E+00 -3.770924394891E+00 -3.742646704380E+00
 -3.713571294770E+00 -3.683693415188E+00 -3.653008617881E+00 -3.621512540625E+00
 -3.589200639759E+00 -3.556067869847E+00 -3.522108306613E+00 -3.487314710763E+00
 -3.451678031648E+00 -3.415186851527E+00 -3.377826773561E+00 -3.339579759634E+00
 -3.300423427781E+00 -3.260330323510E+00 -3.219267184636E+00 -3.177194225498E+00
 -3.134064473667E+00 -3.089823200338E+00 -3.044407494614E+00 -2.997746041515E+00
 -2.949759173681E+00 -2.900359276840E+00 -2.849451638766E+00 -2.823401207775E+00
 -2.796935839805E+00 -2.770042424382E+00 -2.742707789187E+00 -2.714918806520E+00
 -2.686662513959E+00 -2.657926249955E+00 -2.628697805012E+00 -2.598965589047E+00
 -2.568718815356E+00 -2.537947701543E+00 -2.506643687523E+00 -2.474799670576E+00
 -2.442410257159E+00 -2.409472030908E+00 -2.375983835991E+00 -2.341947074559E+00
 -2.307366016722E+00 -2.272248120971E+00 -2.236604362540E+00 -2.200449566640E+00
 -2.163802742958E+00 -2.126687417180E+00 -2.089131954697E+00 -2.051169870940E+00
 -2.012840122142E+00 -1.974187369602E+00 -1.935262209856E+00 -1.896121362472E+00
 -1.856827806559E+00 -1.817450856529E+00 -1.778066167146E+00 -1.738755657557E+00
 -1.699607343778E+00 -1.660715069090E+00 -1.622178122004E+00 -1.584100731915E+00
 -1.546591433356E+00 -1.509762290867E+00 -1.473727978023E+00 -1.438604706100E+00
 -1.404509000257E+00 -1.371556323988E+00 -1.339859555983E+00 -1.309527327408E+00
 -1.280662231978E+00 -1.253358926017E+00 -1.227702140924E+00 -1.203764635989E+00
 -1.181605125307E+00 -1.161266218388E+00 -1.142772419903E+00 -1.126128239570E+00
 -1.111316468369E+00 -1.098296681748E+00 -1.087004034074E+00 -1.077348411017E+00
 -1.069214007545E+00 -1.062459398527E+00 -1.056918166300E+00 -1.052400144731E+00
 -1.048693332094E+00 -1.045566515238E+00 -1.042772635007E+00 -1.040052907484E+00
 -1.037141697412E+00 -1.033772119087E+00 -1.029682316285E+00 -1.024622346498E+00
 -1.018361566396E+00 -1.010696385234E+00 -1.001458221766E+00 -9.905214686553E-01
 -9.787821803211E-01 -9.671759937269E-01 -9.557074275576E-01 -9.443748539728E-01
 -9.331766597089E-01 -9.221112514299E-01 -9.111770546004E-01 -9.003725133534E-01
 -8.896960902706E-01 -8.791462661639E-01 -8.687215398588E-01 -8.584204279810E-01
 -8.482414647455E-01 -8.381832017477E-01 -8.282442077575E-01 -8.184230685156E-01
 -8.087183865324E-01 -7.991287808888E-01 -7.896528870404E-01 -7.802893566223E-01
 -7.710368572583E-01 -7.618940723706E-01 -7.528597009929E-01 -7.439324575850E-01
 -7.351110718500E-01 -7.263942885535E-01 -7.177808673452E-01 -7.092695825820E-01
 -7.008592231541E-01 -6.925485923124E-01 -6.843365074980E-01 -6.762218001744E-01
 -6.682033156611E-01 -6.602799129690E-01 -6.524504646384E-01 -6.447138565784E-01
 -6.370689879085E-01 -6.295147708017E-01 -6.220501303301E-01 -6.146740043117E-01
 -6.073853431592E-01 -6.001831097311E-01 -5.930662791833E-01 -5.860338388243E-01
 -5.790847879702E-01 -5.722181378029E-01 -5.654329112291E-01 -5.587281427416E-01
 -5.521028782814E-01 -5.455561751025E-01 -5.390871016374E-01 -5.326947373647E-01
 -5.263781726781E-01 -5.201365087570E-01 -5.139688574384E-01 -5.078743410908E-01
 -5.018520924895E-01 -4.959012546925E-01 -4.900209809193E-01 -4.842104344300E-01
 -4.784687884065E-01 -4.727952258345E-01 -4.671889393877E-01 -4.616491313126E-01
 -4.561750133150E-01 -4.507658064483E-01 -4.454207410019E-01 -4.401390563925E-01
 -4.349200010552E-01 -4.297628323368E-01 -4.246668163904E-01 -4.196312280706E-01
 -4.146553508306E-01 -4.097384766201E-01 -4.048799057845E-01 -4.000789469656E-01
 -3.953349170030E-01 -3.906471408371E-01 -3.860149514127E-01 -3.814376895845E-01
 -3.769147040233E-01 -3.724453511228E-01 -3.680289949087E-01 -3.636650069479E-01
 -3.593527662589E-01 -3.550916592238E-01 -3.508810795010E-01 -3.467204279385E-01
 -3.426091124890E-01 -3.385465481259E-01 -3.345321567593E-01 -3.305653671545E-01
</data>
</radfunc>
</slps>
<slps n="2" l="p" rc="0.906801790990" eref="0.499999924643E-01">
<radfunc>
<data npts="232">
 -4.113165821813E+00 -4.112676054029E+00 -4.111212696925E+00 -4.108773576220E+00
 -4.105387042611E+00 -4.100942377452E+00 -4.095291286980E+00 -4.088838933394E+00
 -4.081607633629E+00 -4.073206336724E+00 -4.063777178131E+00 -4.053576827712E+00
 -4.041316175381E+00 -4.028589061456E+00 -4.013677173963E+00 -3.998893934233E+00
 -3.982004895048E+00 -3.966127429758E+00 -3.948429575183E+00 -3.928728821140E+00
 -3.906831103529E+00 -3.887593983868E+00 -3.866711214782E+00 -3.844071084737E+00
 -3.819560012739E+00 -3.793063764424E+00 -3.764468925153E+00 -3.741578758873E+00
 -3.717400507204E+00 -3.691890962011E+00 -3.665009458771E+00 -3.636718481760E+00
 -3.606984291796E+00 -3.575777561626E+00 -3.543073999351E+00 -3.508854934973E+00
 -3.473107839295E+00 -3.435826738264E+00 -3.410120579949E+00 -3.383734832817E+00
 -3.356672802901E+00 -3.328939103161E+00 -3.300539582756E+00 -3.271481224385E+00
 -3.241772006566E+00 -3.211420728021E+00 -3.180436791855E+00 -3.148829947927E+00
 -3.116609992798E+00 -3.083786427926E+00 -3.050368078351E+00 -3.016362676141E+00
 -2.981776415204E+00 -2.946613486868E+00 -2.910875608851E+00 -2.874561563833E+00
 -2.837666767809E+00 -2.800182892647E+00 -2.762097571649E+00 -2.723394221265E+00
 -2.684052016201E+00 -2.644046058635E+00 -2.603347784751E+00 -2.561925652846E+00
 -2.519746156224E+00 -2.476775200441E+00 -2.432979877345E+00 -2.410763649384E+00
 -2.388330657204E+00 -2.365678166636E+00 -2.342804004156E+00 -2.319706660366E+00
 -2.296385398722E+00 -2.272840368853E+00 -2.249072723647E+00 -2.225084739101E+00
 -2.200879935803E+00 -2.176463200665E+00 -2.151840907397E+00 -2.127021033988E+00
 -2.102013275260E+00 -2.076829148392E+00 -2.051482089118E+00 -2.025987536122E+00
 -2.000363001009E+00 -1.974628121103E+00 -1.948804692206E+00 -1.922916678419E+00
 -1.896990196070E+00 -1.871053468874E+00 -1.845136751505E+00 -1.819272218983E+00
 -1.793493819474E+00 -1.767837088485E+00 -1.742338922844E+00 -1.717037313394E+00
 -1.691971035986E+00 -1.667179301083E+00 -1.642701363166E+00 -1.618576092093E+00
 -1.594841509618E+00 -1.571534295470E+00 -1.548689268577E+00 -1.526338850355E+00
 -1.504512518284E+00 -1.483236259318E+00 -1.462532033972E+00 -1.442417263142E+00
 -1.422904350790E+00 -1.404000256561E+00 -1.385706133053E+00 -1.368017042879E+00
 -1.350921770664E+00 -1.334402744774E+00 -1.318436082712E+00 -1.302991772755E+00
 -1.288034002458E+00 -1.273521642151E+00 -1.259408888362E+00 -1.245646068350E+00
 -1.232180602575E+00 -1.218958116981E+00 -1.205923691618E+00 -1.193023226327E+00
 -1.180204898252E+00 -1.167420679897E+00 -1.154627880559E+00 -1.141790668490E+00
 -1.128881526346E+00 -1.115882588650E+00 -1.102786807448E+00 -1.089691351551E+00
 -1.076777262859E+00 -1.064013973937E+00 -1.051400213043E+00 -1.038934691465E+00
 -1.026616085723E+00 -1.014443019915E+00 -1.002414048769E+00 -9.905276420344E-01
 -9.787821803211E-01 -9.671759937269E-01 -9.557074275576E-01 -9.443748539728E-01
 -9.331766597089E-01 -9.221112514299E-01 -9.111770546004E-01 -9.003725133534E-01
 -8.896960902706E-01 -8.791462661639E-01 -8.687215398588E-01 -8.584204279810E-01
 -8.482414647455E-01 -8.381832017477E-01 -8.282442077575E-01 -8.184230685156E-01
 -8.087183865324E-01 -7.991287808888E-01 -7.896528870404E-01 -7.802893566223E-01
 -7.710368572583E-01 -7.618940723706E-01 -7.528597009929E-01 -7.439324575850E-01
 -7.351110718500E-01 -7.263942885535E-01 -7.177808673452E-01 -7.092695825820E-01
 -7.008592231541E-01 -6.925485923124E-01 -6.843365074980E-01 -6.762218001744E-01
 -6.682033156611E-01 -6.602799129690E-01 -6.524504646384E-01 -6.447138565784E-01
 -6.370689879085E-01 -6.295147708017E-01 -6.220501303301E-01 -6.146740043117E-01
 -6.073853431592E-01 -6.001831097311E-01 -5.930662791833E-01 -5.860338388243E-01
 -5.790847879702E-01 -5.722181378029E-01 -5.654329112291E-01 -5.587281427416E-01
 -5.521028782814E-01 -5.455561751025E-01 -5.390871016374E-01 -5.326947373647E-01
 -5.263781726781E-01 -5.201365087570E-01 -5.139688574384E-01 -5.078743410908E-01
 -5.018520924895E-01 -4.959012546925E-01 -4.900209809193E-01 -4.842104344300E-01
 -4.784687884065E-01 -4.727952258345E-01 -4.671889393877E-01 -4.616491313126E-01
 -4.561750133150E-01 -4.507658064483E-01 -4.454207410019E-01 -4.401390563925E-01
 -4.349200010552E-01 -4.297628323368E-01 -4.246668163904E-01 -4.196312280706E-01
 -4.146553508306E-01 -4.097384766201E-01 -4.048799057845E-01 -4.000789469656E-01
 -3.953349170030E-01 -3.906471408371E-01 -3.860149514127E-01 -3.814376895845E-01
 -3.769147040233E-01 -3.724453511228E-01 -3.680289949087E-01 -3.636650069479E-01
 -3.593527662589E-01 -3.550916592238E-01 -3.508810795010E-01 -3.467204279385E-01