<?xml version="1.0" encoding="UTF-8" ?>
<psml version="1.1" energy_unit="hartree" length_unit="bohr"
 uuid="cdb6dad0-23d1-11e8-608d-9c15f5f78cef"
 xmlns="http://esl.cecam.org/PSML/ns/1.1">
<provenance creator="ONCVPSP-3.3.0+psml-3.3.0-73 (scalar-relativistic)"
 date="2018-03-09">
<annotation action="semilocal-pseudopotential-generation"
 action-cont="projectors-generation" />
<input-file name="oncvpsp-input">
<![CDATA[# atsym z nc nv iexc psfile
He 2 0 1 -001012 upf
# n l f
1 0 2.0
# lmax
1
# l rc ep ncon nbas qcut
0 1.25 0.0 4 8 9.4
1 1.13 0.05 4 7 9.4
# lloc lpopt rc5 dvloc0
4 5 1.0 0.0
# l nproj debl
0 2 1.0
1 1 1.0
# icmod fcfact rcfact
0 0.25 0.0
# epsh1 epsh2 depsh
-12.0 12.0 0.02
# rlmax drl
6.0 0.01
 0
]]>
</input-file>
</provenance>
<pseudo-atom-spec atomic-label="He" atomic-number="2" z-pseudo="2"
 flavor="Hamann&apos;s oncvpsp" relativity="scalar" spin-dft="no"
 core-corrections="no">
<annotation pseudo-energy="-2.80428932389" />
<exchange-correlation>
<annotation oncvpsp-xc-code="-1012" oncvpsp-xc-type="libxc-interface" />
<libxc-info number-of-functionals="2">
<functional name="Slater exchange (LDA)" type="exchange" id="1" />
<functional name="Perdew &amp; Wang (LDA)" type="correlation" id="12" />
</libxc-info>
</exchange-correlation>
<valence-configuration total-valence-charge="2">
<shell n="1" l="s" occupation="2" />
</valence-configuration>
</pseudo-atom-spec>
<grid npts="457">
<annotation type="sampled from oncvpsp log grid"
 recipe="r(i:1..N) = r1*exp(a*(i-1)) + r=0; resampled"
 recipe-cont="r1: scale; a: step" scale="0.250000000000E-03"
 step="0.119285708653E-01" delta="0.500000000000E-02" rmax="44.2383759443" />
<grid-data>
  0.000000000000E+00  5.051602385059E-03  1.009017932864E-02  1.513687797741E-02
  2.015434136011E-02  2.528123861035E-02  3.059754257067E-02  3.573001596412E-02
  4.073979579344E-02  4.590119295367E-02  5.110325760530E-02  5.622023872390E-02
  6.184958435691E-02  6.723576846129E-02  7.309100954492E-02  7.851398768163E-02
  8.433932298996E-02  8.952259714325E-02  9.502442176619E-02  1.008643741373E-01
  1.070632347034E-01  1.122955148451E-01  1.177835013976E-01  1.235396909718E-01
  1.295771908995E-01  1.359097490801E-01  1.425517852856E-01  1.477454782566E-01
  1.531283968246E-01  1.587074351836E-01  1.644897387087E-01  1.704827131076E-01
  1.766940339056E-01  1.831316562762E-01  1.898038252291E-01  1.967190861709E-01
  2.038862958488E-01  2.113146336947E-01  2.164166142107E-01  2.216417769442E-01
  2.269930960067E-01  2.324736173167E-01  2.380864603332E-01  2.438348198315E-01
  2.497219677215E-01  2.557512549101E-01  2.619261132087E-01  2.682500572860E-01
  2.747266866691E-01  2.813596877920E-01  2.881528360941E-01  2.951099981688E-01
  3.022351339645E-01  3.095322990390E-01  3.170056468670E-01  3.246594312049E-01
  3.324980085119E-01  3.405258404295E-01  3.487474963208E-01  3.571676558720E-01
  3.657911117553E-01  3.746227723576E-01  3.836676645734E-01  3.929309366668E-01
  4.024178612017E-01  4.121338380425E-01  4.220843974282E-01  4.271494101974E-01
  4.322752031198E-01  4.374625055572E-01  4.427120556239E-01  4.480246002914E-01
  4.534008954949E-01  4.588417062408E-01  4.643478067157E-01  4.699199803963E-01
  4.755590201610E-01  4.812657284030E-01  4.870409171438E-01  4.928854081495E-01
  4.988000330473E-01  5.047856334439E-01  5.108430610452E-01  5.169731777778E-01
  5.231768559111E-01  5.294549781820E-01  5.358084379202E-01  5.422381391752E-01
  5.487449968454E-01  5.553299368075E-01  5.619938960492E-01  5.687378228018E-01
  5.755626766754E-01  5.824694287955E-01  5.894590619410E-01  5.965325706843E-01
  6.036909615326E-01  6.109352530709E-01  6.182664761078E-01  6.256856738211E-01
  6.331939019069E-01  6.407922287298E-01  6.484817354746E-01  6.562635163003E-01
  6.641386784959E-01  6.721083426378E-01  6.801736427495E-01  6.883357264625E-01
  6.965957551800E-01  7.049549042422E-01  7.134143630931E-01  7.219753354502E-01
  7.306390394756E-01  7.394067079493E-01  7.482795884447E-01  7.572589435061E-01
  7.663460508281E-01  7.755422034381E-01  7.848487098793E-01  7.942668943979E-01
  8.037980971306E-01  8.134436742962E-01  8.232049983878E-01  8.330834583684E-01
  8.430804598688E-01  8.531974253873E-01  8.634357944919E-01  8.737970240258E-01
  8.842825883141E-01  8.948939793739E-01  9.056327071264E-01  9.165002996119E-01
  9.274983032072E-01  9.386282828457E-01  9.498918222399E-01  9.612905241068E-01
  9.728260103960E-01  9.844999225208E-01  9.963139215910E-01  1.008269688650E+00
  1.020368924914E+00  1.032613352013E+00  1.045004712237E+00  1.057544768784E+00
  1.070235306009E+00  1.083078129681E+00  1.096075067238E+00  1.109227968044E+00
  1.122538703661E+00  1.136009168105E+00  1.149641278122E+00  1.163436973460E+00
  1.177398217141E+00  1.191526995747E+00  1.205825319696E+00  1.220295223532E+00
  1.234938766215E+00  1.249758031409E+00  1.264755127786E+00  1.279932189319E+00
  1.295291375591E+00  1.310834872098E+00  1.326564890564E+00  1.342483669250E+00
  1.358593473281E+00  1.374896594961E+00  1.391395354100E+00  1.408092098349E+00
  1.424989203530E+00  1.442089073972E+00  1.459394142860E+00  1.476906872574E+00
  1.494629755045E+00  1.512565312105E+00  1.530716095851E+00  1.549084689001E+00
  1.567673705269E+00  1.586485789732E+00  1.605523619209E+00  1.624789902639E+00
  1.644287381471E+00  1.664018830049E+00  1.683987056009E+00  1.704194900681E+00
  1.724645239490E+00  1.745340982363E+00  1.766285074152E+00  1.787480495042E+00
  1.808930260982E+00  1.830637424114E+00  1.852605073203E+00  1.874836334082E+00
  1.897334370091E+00  1.920102382532E+00  1.943143611122E+00  1.966461334456E+00
  1.990058870469E+00  2.013939576915E+00  2.038106851838E+00  2.062564134060E+00
  2.087314903669E+00  2.112362682513E+00  2.137711034703E+00  2.163363567119E+00
  2.189323929925E+00  2.215595817084E+00  2.242182966889E+00  2.269089162491E+00
  2.296318232441E+00  2.323874051231E+00  2.351760539845E+00  2.379981666323E+00
  2.408541446319E+00  2.437443943675E+00  2.466693270999E+00  2.496293590251E+00
  2.526249113334E+00  2.556564102694E+00  2.587242871927E+00  2.618289786390E+00
  2.649709263826E+00  2.681505774992E+00  2.713683844292E+00  2.746248050424E+00
  2.779203027029E+00  2.812553463353E+00  2.846304104913E+00  2.880459754172E+00
  2.915025271222E+00  2.950005574477E+00  2.985405641371E+00  3.021230509067E+00
  3.057485275176E+00  3.094175098478E+00  3.131305199660E+00  3.168880862056E+00
  3.206907432400E+00  3.245390321589E+00  3.284335005448E+00  3.323747025514E+00
  3.363631989820E+00  3.403995573698E+00  3.444843520582E+00  3.486181642829E+00
  3.528015822543E+00  3.570352012414E+00  3.613196236563E+00  3.656554591401E+00
  3.700433246498E+00  3.744838445456E+00  3.789776506802E+00  3.835253824883E+00
  3.881276870782E+00  3.927852193231E+00  3.974986419550E+00  4.022686256585E+00
  4.070958491664E+00  4.119809993564E+00  4.169247713486E+00  4.219278686048E+00
  4.269910030281E+00  4.321148950644E+00  4.373002738052E+00  4.425478770908E+00
  4.478584516159E+00  4.532327530353E+00  4.586715460717E+00  4.641756046246E+00
  4.697457118801E+00  4.753826604227E+00  4.810872523477E+00  4.868602993759E+00
  4.927026229684E+00  4.986150544440E+00  5.045984350974E+00  5.106536163185E+00
  5.167814597144E+00  5.229828372309E+00  5.292586312777E+00  5.356097348530E+00
  5.420370516713E+00  5.485414962913E+00  5.551239942468E+00  5.617854821778E+00
  5.685269079639E+00  5.753492308595E+00  5.822534216298E+00  5.892404626894E+00
  5.963113482416E+00  6.034670844205E+00  6.107086894336E+00  6.180371937068E+00
  6.254536400313E+00  6.329590837116E+00  6.405545927162E+00  6.482412478288E+00
  6.560201428027E+00  6.638923845163E+00  6.718590931305E+00  6.799214022481E+00
  6.880804590751E+00  6.963374245840E+00  7.046934736790E+00  7.131497953631E+00
  7.217075929075E+00  7.303680840224E+00  7.391325010307E+00  7.480020910430E+00
  7.569781161355E+00  7.660618535292E+00  7.752545957715E+00  7.845576509208E+00
  7.939723427318E+00  8.035000108446E+00  8.131420109747E+00  8.228997151064E+00
  8.327745116877E+00  8.427678058280E+00  8.528810194979E+00  8.631155917319E+00
  8.734729788327E+00  8.839546545787E+00  8.945621104336E+00  9.052968557588E+00
  9.161604180279E+00  9.271543430442E+00  9.382801951608E+00  9.495395575027E+00
  9.609340321927E+00  9.724652405790E+00  9.841348234660E+00  9.959444413476E+00
  1.007895774644E+01  1.019990523939E+01  1.032230410227E+01  1.044617175149E+01
  1.057152581251E+01  1.069838412226E+01  1.082676473173E+01  1.095668590851E+01
  1.108816613941E+01  1.122122413309E+01  1.135587882268E+01  1.149214936856E+01
  1.163005516098E+01  1.176961582291E+01  1.191085121278E+01  1.205378142734E+01
  1.219842680447E+01  1.234480792612E+01  1.249294562123E+01  1.264286096869E+01
  1.279457530031E+01  1.294811020392E+01  1.310348752636E+01  1.326072937668E+01
  1.341985812920E+01  1.358089642675E+01  1.374386718387E+01  1.390879359008E+01
  1.407569911316E+01  1.424460750252E+01  1.441554279255E+01  1.458852930606E+01
  1.476359165773E+01  1.494075475762E+01  1.512004381471E+01  1.530148434049E+01
  1.548510215258E+01  1.567092337841E+01  1.585897445895E+01  1.604928215246E+01
  1.624187353828E+01  1.643677602074E+01  1.663401733299E+01  1.683362554099E+01
  1.703562904748E+01  1.724005659605E+01  1.744693727520E+01  1.765630052251E+01
  1.786817612878E+01  1.808259424232E+01  1.829958537323E+01  1.851918039771E+01
  1.874141056248E+01  1.896630748923E+01  1.919390317910E+01  1.942423001725E+01
  1.965732077746E+01  1.989320862679E+01  2.013192713031E+01  2.037351025587E+01
  2.061799237894E+01  2.086540828749E+01  2.111579318694E+01  2.136918270518E+01
  2.162561289764E+01  2.188512025242E+01  2.214774169545E+01  2.241351459579E+01
  2.268247677094E+01  2.295466649219E+01  2.323012249010E+01  2.350888395998E+01
  2.379099056750E+01  2.407648245431E+01  2.436540024376E+01  2.465778504669E+01
  2.495367846725E+01  2.525312260885E+01  2.555616008016E+01  2.586283400112E+01
  2.617318800913E+01  2.648726626524E+01  2.680511346043E+01  2.712677482195E+01
  2.745229611982E+01  2.778172367325E+01  2.811510435733E+01  2.845248560962E+01
  2.879391543694E+01  2.913944242218E+01  2.948911573124E+01  2.984298512002E+01
  3.020110094146E+01  3.056351415276E+01  3.093027632259E+01  3.130143963846E+01
  3.167705691412E+01  3.205718159709E+01  3.244186777626E+01  3.283117018957E+01
  3.322514423185E+01  3.362384596263E+01  3.402733211418E+01  3.443566009955E+01
  3.484888802075E+01  3.526707467700E+01  3.569027957312E+01  3.611856292800E+01
  3.655198568313E+01  3.699060951133E+01  3.743449682547E+01  3.788371078737E+01
  3.833831531682E+01  3.879837510062E+01  3.926395560183E+01  3.973512306905E+01
  4.021194454588E+01  4.069448788043E+01  4.118282173500E+01  4.167701559582E+01
  4.217713978297E+01  4.268326546036E+01  4.319546464589E+01  4.371381022164E+01
  4.423837594430E+01
</grid-data>
</grid>
<valence-charge total-charge="2" is-unscreening-charge="yes"
 rescaled-to-z-pseudo="no">
<radfunc>
<data npts="457">
  1.710510428924E+01  1.710342339093E+01  1.709839839912E+01  1.709001666493E+01
  1.707836687296E+01  1.706305519515E+01  1.704355146393E+01  1.702123286866E+01
  1.699615694166E+01  1.696693976206E+01  1.693403966651E+01  1.689831877700E+01
  1.685520260488E+01  1.681023595626E+01  1.675727502617E+01  1.670447459959E+01
  1.664378736807E+01  1.658637489346E+01  1.652196309303E+01  1.644973748748E+01
  1.636879918743E+01  1.629711382618E+01  1.621867065514E+01  1.613287836495E+01
  1.603910342195E+01  1.593666910274E+01  1.582485502056E+01  1.573438107648E+01
  1.563786415762E+01  1.553495316483E+01  1.542528458012E+01  1.530848334038E+01
  1.518416398550E+01  1.505193211896E+01  1.491138622231E+01  1.476211986686E+01
  1.460372436821E+01  1.443579193019E+01  1.431833923463E+01  1.419635101899E+01
  1.406971215731E+01  1.393831057178E+01  1.380203797839E+01  1.366079069345E+01
  1.351447050267E+01  1.336298559326E+01  1.320625154963E+01  1.304419241183E+01
  1.287674179570E+01  1.270384407217E+01  1.252545560239E+01  1.234154602403E+01
  1.215209958252E+01  1.195711649964E+01  1.175661437011E+01  1.155062957482E+01
  1.133921869756E+01  1.112245992977E+01  1.090045444591E+01  1.067332772946E+01
  1.044123082759E+01  1.020434150998E+01  9.962865305553E+00  9.717036388394E+00
  9.467118282942E+00  9.213404356848E+00  8.956218069188E+00  8.826432097915E+00
  8.695912941413E+00  8.564709431659E+00  8.432872218829E+00  8.300453741637E+00
  8.167508191695E+00  8.034091471692E+00  7.900261147220E+00  7.766076392095E+00
  7.631597927033E+00  7.496887951573E+00  7.362010069170E+00  7.227029205401E+00
  7.092011519262E+00  6.957024307581E+00  6.822135902584E+00  6.687415562714E+00
  6.552933356831E+00  6.418760041970E+00  6.284966934876E+00  6.151625777572E+00
  6.018808597294E+00  5.886587561124E+00  5.755034825762E+00  5.624222382869E+00
  5.494221900493E+00  5.365104561144E+00  5.236940897090E+00  5.109800623544E+00
  4.983752470395E+00  4.858864013232E+00  4.735201504390E+00  4.612829704829E+00
  4.491811717630E+00  4.372208823964E+00  4.254080322363E+00  4.137483372165E+00
  4.022472841965E+00  3.909101163964E+00  3.797418195012E+00  3.687471085211E+00
  3.579304154841E+00  3.472958780403E+00  3.368473290471E+00  3.265882872061E+00
  3.165219488115E+00  3.066511806677E+00  2.969785142256E+00  2.875061409797E+00
  2.782359091624E+00  2.691693217621E+00  2.603075358856E+00  2.516513634757E+00
  2.432012733880E+00  2.349573948222E+00  2.269195220946E+00  2.190871207343E+00
  2.114593348724E+00  2.040349958936E+00  1.968126323077E+00  1.897904807967E+00
  1.829664983851E+00  1.763383756787E+00  1.699035511125E+00  1.636592261432E+00
  1.576023813227E+00  1.517297931806E+00  1.460380518469E+00  1.405235793392E+00
  1.351826484387E+00  1.300114020734E+00  1.250058731272E+00  1.201620045851E+00
  1.154756699208E+00  1.109426936267E+00  1.065588717785E+00  1.023199925136E+00
  9.822185629643E-01  9.426029582924E-01  9.043119545223E-01  8.673050986598E-01
  8.315428199180E-01  7.969865977267E-01  7.635991170416E-01  7.313444087344E-01
  7.001879727669E-01  6.700968818128E-01  6.410398630089E-01  6.129873556017E-01
  5.859115424130E-01  5.597863532979E-01  5.345874391053E-01  5.102920099085E-01
  4.868782318523E-01  4.643243842067E-01  4.426088780685E-01  4.217102629615E-01
  4.016072415698E-01  3.822786840010E-01  3.637036415679E-01  3.458613600778E-01
  3.287312926197E-01  3.122931118380E-01  2.965267216887E-01  2.814122686669E-01
  2.669301525023E-01  2.530610363166E-01  2.397858562393E-01  2.270858304775E-01
  2.149424678401E-01  2.033375757120E-01  1.922532674816E-01  1.816719694188E-01
  1.715764270084E-01  1.619497107387E-01  1.527752213503E-01  1.440366945490E-01
  1.357182051873E-01  1.278041709204E-01  1.202793553444E-01  1.131288706225E-01
  1.063381796082E-01  9.989309747399E-02  9.377979285526E-02  8.798478851892E-02
  8.249496156816E-02  7.729754319409E-02  7.238011798639E-02  6.773062281531E-02
  6.333734529787E-02  5.918892186160E-02  5.527433541969E-02  5.158291267174E-02
  4.810432104461E-02  4.482856528836E-02  4.174598374256E-02  3.884724428831E-02
  3.612334000194E-02  3.356558452617E-02  3.116560717495E-02  2.891534778825E-02
  2.680705135317E-02  2.483326240776E-02  2.298681924414E-02  2.126084792729E-02
  1.964875614604E-02  1.814422691252E-02  1.674121212643E-02  1.543392602020E-02
  1.421683850090E-02  1.308466840483E-02  1.203237667999E-02  1.105515951184E-02
  1.014844140714E-02  9.307868250449E-03  8.529300347369E-03  7.808805468449E-03
  7.142651906943E-03  6.527301563369E-03  5.959403069277E-03  5.435784962093E-03
  4.953448922435E-03  4.509563084715E-03  4.101455431312E-03  3.726607279987E-03
  3.382646873667E-03  3.067343081076E-03  2.778599216123E-03  2.514446983327E-03
  2.273040555918E-03  2.052650792684E-03  1.851659598949E-03  1.668554436518E-03
  1.501922986751E-03  1.350447970366E-03  1.212902126968E-03  1.088143356704E-03
  9.751100258902E-04  8.728164379031E-04  7.803484700910E-04  6.968593769402E-04
  6.215657592479E-04  5.537436985722E-04  4.927250557864E-04  4.378939321405E-04
  3.886832908329E-04  3.445717367272E-04  3.050804515028E-04  2.697702812119E-04
  2.382389729269E-04  2.101185569022E-04  1.850728704400E-04  1.627952194460E-04
  1.430061734830E-04  1.254514899789E-04  1.099001631221E-04  9.614259287728E-05
  8.398886948097E-05  7.326716872502E-05  6.382225330815E-05  5.551407552884E-05
  4.821647660644E-05  4.181597794947E-05  3.621065974009E-05  3.130912226969E-05
  2.702952554146E-05  2.329870275006E-05  2.005134335452E-05  1.722924157772E-05
  1.478060629135E-05  1.265942837943E-05  1.082490181388E-05  9.240894821309E-06
  7.875467670026E-06  6.700433759108E-06  5.690960845987E-06  4.825209404455E-06
  4.084005260400E-06  3.450543806956E-06  2.910123253397E-06  2.449904512237E-06
  2.058695476012E-06  1.726757578507E-06  1.445632674368E-06  1.207988405483E-06
  1.007480352128E-06  8.386293911527E-07  6.967128023467E-07  5.776677773415E-07
  4.780060929195E-07  3.947388123102E-07  3.253099739978E-07  2.675383177461E-07
  2.195661820649E-07  1.798147862845E-07  1.469451839328E-07  1.198242423629E-07
  9.749506676163E-08  7.915134497453E-08  6.411514322381E-08  5.181773201003E-08
  4.178306649556E-08  3.361358671691E-08  2.697804029711E-08  2.160106416942E-08
  1.725429241565E-08  1.374878489695E-08  1.092859613811E-08  8.665326135941E-09
  6.853514606850E-09  5.406757869699E-09  4.254443265923E-09  3.339009930641E-09
  2.613657014135E-09  2.040431271066E-09  1.588635432154E-09  1.233507086253E-09
  9.551250557238E-10  7.375065604411E-10  5.678639415543E-10  4.359944517377E-10
  3.337807016463E-10  2.547828617618E-10  1.939067260137E-10  1.471343123236E-10
  1.113058626023E-10  8.394396145459E-11  6.311206387975E-11  4.730104728577E-11
  3.533851706782E-11  2.631652840404E-11  1.953416648206E-11  1.445207627754E-11
  1.065657134296E-11  7.831396274110E-12  5.735583215193E-12  4.186151143044E-12
  3.044611558811E-12  2.206537369624E-12  1.593443136242E-12  1.146541139532E-12
  8.219617923621E-13  5.870883065933E-13  4.177588941585E-13  2.961412412055E-13
  0.000000000000E+00  0.000000000000E+00  0.000000000000E+00  0.000000000000E+00
  0.000000000000E+00  0.000000000000E+00  0.000000000000E+00  0.000000000000E+00
  0.000000000000E+00  0.000000000000E+00  0.000000000000E+00  0.000000000000E+00
  0.000000000000E+00  0.000000000000E+00  0.000000000000E+00  0.000000000000E+00
  0.000000000000E+00  0.000000000000E+00  0.000000000000E+00  0.000000000000E+00
  0.000000000000E+00  0.000000000000E+00  0.000000000000E+00  0.000000000000E+00
  0.000000000000E+00  0.000000000000E+00  0.000000000000E+00  0.000000000000E+00
  0.000000000000E+00  0.000000000000E+00  0.000000000000E+00  0.000000000000E+00
  0.000000000000E+00  0.000000000000E+00  0.000000000000E+00  0.000000000000E+00
  0.000000000000E+00  0.000000000000E+00  0.000000000000E+00  0.000000000000E+00
  0.000000000000E+00  0.000000000000E+00  0.000000000000E+00  0.000000000000E+00
  0.000000000000E+00  0.000000000000E+00  0.000000000000E+00  0.000000000000E+00
  0.000000000000E+00  0.000000000000E+00  0.000000000000E+00  0.000000000000E+00
  0.000000000000E+00  0.000000000000E+00  0.000000000000E+00  0.000000000000E+00
  0.000000000000E+00  0.000000000000E+00  0.000000000000E+00  0.000000000000E+00
  0.000000000000E+00  0.000000000000E+00  0.000000000000E+00  0.000000000000E+00
  0.000000000000E+00  0.000000000000E+00  0.000000000000E+00  0.000000000000E+00
  0.000000000000E+00  0.000000000000E+00  0.000000000000E+00  0.000000000000E+00
  0.000000000000E+00  0.000000000000E+00  0.000000000000E+00  0.000000000000E+00
  0.000000000000E+00  0.000000000000E+00  0.000000000000E+00  0.000000000000E+00
  0.000000000000E+00  0.000000000000E+00  0.000000000000E+00  0.000000000000E+00
  0.000000000000E+00  0.000000000000E+00  0.000000000000E+00  0.000000000000E+00
  0.000000000000E+00  0.000000000000E+00  0.000000000000E+00  0.000000000000E+00
  0.000000000000E+00  0.000000000000E+00  0.000000000000E+00  0.000000000000E+00
  0.000000000000E+00  0.000000000000E+00  0.000000000000E+00  0.000000000000E+00
  0.000000000000E+00  0.000000000000E+00  0.000000000000E+00  0.000000000000E+00
  0.000000000000E+00
</data>
</radfunc>
</valence-charge>
<semilocal-potentials set="scalar_relativistic">
<slps n="1" l="s" rc="1.26475512779" eref="-0.570273376306">
<radfunc>
<data npts="290">
 -8.251657833589E+00 -8.251287434448E+00 -8.250180039523E+00 -8.248332166763E+00
 -8.245762257488E+00 -8.242381801836E+00 -8.238071315817E+00 -8.233132490341E+00
 -8.227575551132E+00 -8.221090253734E+00 -8.213773722053E+00 -8.205813350908E+00
 -8.196181939364E+00 -8.186110249782E+00 -8.174212593144E+00 -8.162312699419E+00
 -8.148587839389E+00 -8.135556595056E+00 -8.120881971074E+00 -8.104357944789E+00
 -8.085753038584E+00 -8.069197228555E+00 -8.050996293608E+00 -8.030988411687E+00
 -8.008996249543E+00 -7.984825580950E+00 -7.958263810645E+00 -7.936634235432E+00
 -7.913423317836E+00 -7.888517828181E+00 -7.861796877381E+00 -7.833131487520E+00
 -7.802384157266E+00 -7.769408426928E+00 -7.734048449309E+00 -7.696138574135E+00
 -7.655502955851E+00 -7.611955196841E+00 -7.581208545714E+00 -7.549018990202E+00
 -7.515323136021E+00 -7.480055360825E+00 -7.443147812755E+00 -7.404530422033E+00
 -7.364130927768E+00 -7.321874922376E+00 -7.277685916352E+00 -7.231485426375E+00
 -7.183193090126E+00 -7.132726811507E+00 -7.080002940347E+00 -7.024936491081E+00
 -6.967441405295E+00 -6.907430863473E+00 -6.844817651684E+00 -6.779514589412E+00
 -6.711435025117E+00 -6.640493406502E+00 -6.566605932813E+00 -6.489691296730E+00
 -6.409671523594E+00 -6.326472915744E+00 -6.240027109590E+00 -6.150272252708E+00
 -6.057154307629E+00 -5.960628488046E+00 -5.860660831862E+00 -5.809379080200E+00
 -5.757229913708E+00 -5.704212916990E+00 -5.650328697288E+00 -5.595578949801E+00
 -5.539966525001E+00 -5.483495497838E+00 -5.426171238756E+00 -5.368000486361E+00
 -5.308991421603E+00 -5.249153743292E+00 -5.188498744747E+00 -5.127039391341E+00
 -5.064790398684E+00 -5.001768311161E+00 -4.937991580485E+00 -4.873480643929E+00
 -4.808258001833E+00 -4.742348293964E+00 -4.675778374273E+00 -4.608577383544E+00
 -4.540776819405E+00 -4.472410603135E+00 -4.403515142645E+00 -4.334129391016E+00
 -4.264294899899E+00 -4.194055867069E+00 -4.123459177408E+00 -4.052554436530E+00
 -3.981393996263E+00 -3.910032971159E+00 -3.838529245194E+00 -3.766943467785E+00
 -3.695339038247E+00 -3.623782077787E+00 -3.552341388113E+00 -3.481088395740E+00
 -3.410097081028E+00 -3.339443891005E+00 -3.269207634970E+00 -3.199469361886E+00
 -3.130312218505E+00 -3.061821287148E+00 -2.994083402004E+00 -2.927186942766E+00
 -2.861221604307E+00 -2.796278141061E+00 -2.732448084620E+00 -2.669823432965E+00
 -2.608496309590E+00 -2.548558590655E+00 -2.490101498125E+00 -2.433215156705E+00
 -2.377988112242E+00 -2.324506809127E+00 -2.272855024160E+00 -2.223113254295E+00
 -2.175358055755E+00 -2.129661332147E+00 -2.086089569526E+00 -2.044703016826E+00
 -2.005554810749E+00 -1.968690045179E+00 -1.934144786364E+00 -1.901945036713E+00
 -1.872105651948E+00 -1.844629218679E+00 -1.819504902190E+00 -1.796707277389E+00
 -1.776195159431E+00 -1.757910454503E+00 -1.741777055577E+00 -1.727699812530E+00
 -1.715563610851E+00 -1.705232597986E+00 -1.696549601221E+00 -1.689335785521E+00
 -1.683390603864E+00 -1.678492096099E+00 -1.674397594912E+00 -1.670844898956E+00
 -1.667553973302E+00 -1.664229235861E+00 -1.660562485112E+00 -1.656236519161E+00
 -1.650929488589E+00 -1.644320015766E+00 -1.636093101048E+00 -1.625946821595E+00
 -1.613599811481E+00 -1.598799492329E+00 -1.581331002106E+00 -1.562593494495E+00
 -1.544064530027E+00 -1.525755282644E+00 -1.507663146858E+00 -1.489785548074E+00
 -1.472119942229E+00 -1.454663815430E+00 -1.437414683593E+00 -1.420370092092E+00
 -1.403527615409E+00 -1.386884856790E+00 -1.370439447902E+00 -1.354189048497E+00
 -1.338131346078E+00 -1.322264055574E+00 -1.306584919008E+00 -1.291091705183E+00
 -1.275782209357E+00 -1.260654252937E+00 -1.245705683162E+00 -1.230934372803E+00
 -1.216338219854E+00 -1.201915147239E+00 -1.187663102511E+00 -1.173580057564E+00
 -1.159664008341E+00 -1.145912974554E+00 -1.132324999395E+00 -1.118898149264E+00
 -1.105630513489E+00 -1.092520204057E+00 -1.079565355347E+00 -1.066764123859E+00
 -1.054114687955E+00 -1.041615247601E+00 -1.029264024109E+00 -1.017059259884E+00
 -1.004999218173E+00 -9.930821828202E-01 -9.813064580215E-01 -9.696703680828E-01
 -9.581722571817E-01 -9.468104891323E-01 -9.355834471519E-01 -9.244895336313E-01
 -9.135271699070E-01 -9.026947960368E-01 -8.919908705777E-01 -8.814138703665E-01
 -8.709622903032E-01 -8.606346431365E-01 -8.504294592525E-01 -8.403452864650E-01
 -8.303806898094E-01 -8.205342513382E-01 -8.108045699191E-01 -8.011902610357E-01
 -7.916899565906E-01 -7.823023047103E-01 -7.730259695533E-01 -7.638596311193E-01
 -7.548019850621E-01 -7.458517425034E-01 -7.370076298494E-01 -7.282683886100E-01
 -7.196327752191E-01 -7.110995608580E-01 -7.026675312801E-01 -6.943354866385E-01
 -6.861022413152E-01 -6.779666237521E-01 -6.699274762842E-01 -6.619836549752E-01
 -6.541340294544E-01 -6.463774827559E-01 -6.387129111597E-01 -6.311392240344E-01
 -6.236553436822E-01 -6.162602051853E-01 -6.089527562544E-01 -6.017319570792E-01
 -5.945967801801E-01 -5.875462102617E-01 -5.805792440691E-01 -5.736948902442E-01
 -5.668921691854E-01 -5.601701129075E-01 -5.535277649044E-01 -5.469641800126E-01
 -5.404784242771E-01 -5.340695748180E-01 -5.277367196995E-01 -5.214789577998E-01
 -5.152953986833E-01 -5.091851624732E-01 -5.031473797268E-01 -4.971811913118E-01
 -4.912857482833E-01 -4.854602117640E-01 -4.797037528238E-01 -4.740155523626E-01
 -4.683948009932E-01 -4.628406989263E-01 -4.573524558567E-01 -4.519292908508E-01
 -4.465704322352E-01 -4.412751174873E-01 -4.360425931265E-01 -4.308721146068E-01
 -4.257629462112E-01 -4.207143609467E-01 -4.157256404409E-01 -4.107960748399E-01
 -4.059249627071E-01 -4.011116109233E-01 -3.963553345883E-01 -3.916554569231E-01
 -3.870113091739E-01 -3.824222305168E-01 -3.778875679634E-01 -3.734066762686E-01
 -3.689789178381E-01 -3.646036626380E-01 -3.602802881049E-01 -3.560081790575E-01
 -3.517867276091E-01 -3.476153330808E-01 -3.434934019163E-01 -3.394203475973E-01
 -3.353955905599E-01 -3.314185581124E-01
</data>
</radfunc>
</slps>
<slps n="2" l="p" rc="1.13600916810" eref="0.500000063454E-01">
<radfunc>
<data npts="290">
 -6.380773066550E+00 -6.380365021723E+00 -6.379145422266E+00 -6.377111456822E+00
 -6.374285105978E+00 -6.370571510835E+00 -6.365843113295E+00 -6.360434916365E+00
 -6.354361904990E+00 -6.347290392538E+00 -6.339333216131E+00 -6.330700658058E+00
 -6.320290388825E+00 -6.309444355486E+00 -6.296684492097E+00 -6.283978766421E+00
 -6.269394203422E+00 -6.255615303416E+00 -6.240178096940E+00 -6.222895159045E+00
 -6.203561060943E+00 -6.186466858106E+00 -6.167792874872E+00 -6.147407091298E+00
 -6.125169268361E+00 -6.100931018034E+00 -6.074536019277E+00 -6.053226098341E+00
 -6.030539247900E+00 -6.006401726829E+00 -5.980738018403E+00 -5.953471117926E+00
 -5.924522874633E+00 -5.893814390766E+00 -5.861266479603E+00 -5.826800182845E+00
 -5.790337345760E+00 -5.751801246057E+00 -5.724921745689E+00 -5.697066133345E+00
 -5.668213619718E+00 -5.638344165122E+00 -5.607438575675E+00 -5.575478597112E+00
 -5.542447004323E+00 -5.508327684441E+00 -5.473105711044E+00 -5.436767406746E+00
 -5.399300391177E+00 -5.360693611158E+00 -5.320937349614E+00 -5.280023209705E+00
 -5.237944070534E+00 -5.194694010911E+00 -5.150268197824E+00 -5.104662736660E+00
 -5.057874480871E+00 -5.009900799624E+00 -4.960739303218E+00 -4.910387527651E+00
 -4.858842581699E+00 -4.806100762423E+00 -4.752157147994E+00 -4.697005180335E+00
 -4.640636254203E+00 -4.583039334015E+00 -4.524200624952E+00 -4.494310472178E+00
 -4.464103330408E+00 -4.433576611499E+00 -4.402727533723E+00 -4.371553127996E+00
 -4.340050247913E+00 -4.308215583995E+00 -4.276045682621E+00 -4.243536970070E+00
 -4.210685782168E+00 -4.177488399965E+00 -4.143941091934E+00 -4.110040163100E+00
 -4.075782011560E+00 -4.041163192748E+00 -4.006180491837E+00 -3.970831004544E+00
 -3.935112226610E+00 -3.899022152091E+00 -3.862559380534E+00 -3.825723233011E+00
 -3.788513876819E+00 -3.750932458562E+00 -3.712981245114E+00 -3.674663771836E+00
 -3.635984997164E+00 -3.596951462509E+00 -3.557571456136E+00 -3.517855179467E+00
 -3.477814913938E+00 -3.437465186295E+00 -3.396822929880E+00 -3.355907639191E+00
 -3.314741514653E+00 -3.273349594281E+00 -3.231759868582E+00 -3.190003374818E+00
 -3.148114266468E+00 -3.106129853567E+00 -3.064090609425E+00 -3.022040139160E+00
 -2.980025105461E+00 -2.938095107112E+00 -2.896302505972E+00 -2.854702198464E+00
 -2.813351328055E+00 -2.772308935843E+00 -2.731635547148E+00 -2.691392692946E+00
 -2.651642366135E+00 -2.612446413952E+00 -2.573865869365E+00 -2.535960225955E+00
 -2.498786662672E+00 -2.462399226833E+00 -2.426847985849E+00 -2.392178160362E+00
 -2.358429253673E+00 -2.325634194518E+00 -2.293818512348E+00 -2.262999566130E+00
 -2.233185849335E+00 -2.204376395063E+00 -2.176560306023E+00 -2.149716434403E+00
 -2.123813236208E+00 -2.098808823551E+00 -2.074651236328E+00 -2.051278951888E+00
 -2.028621647352E+00 -2.006601224436E+00 -1.985133100687E+00 -1.964127764209E+00
 -1.943492581112E+00 -1.923133836340E+00 -1.902958979195E+00 -1.882879035155E+00
 -1.862811135572E+00 -1.842681106981E+00 -1.822426052326E+00 -1.801996847851E+00
 -1.781360472249E+00 -1.760502079242E+00 -1.739637667368E+00 -1.719028508895E+00
 -1.698657477878E+00 -1.678523178593E+00 -1.658624116424E+00 -1.638958660857E+00
 -1.619525008157E+00 -1.600321144545E+00 -1.581344810847E+00 -1.562593494495E+00
 -1.544064530027E+00 -1.525755282644E+00 -1.507663146858E+00 -1.489785548074E+00
 -1.472119942229E+00 -1.454663815430E+00 -1.437414683593E+00 -1.420370092092E+00
 -1.403527615409E+00 -1.386884856790E+00 -1.370439447902E+00 -1.354189048497E+00