<?xml version="1.0" encoding="UTF-8" ?>
<psml version="1.1" energy_unit="hartree" length_unit="bohr"
 uuid="871ce6d0-23d3-11e8-5ab2-41b9cf7f1e18"
 xmlns="http://esl.cecam.org/PSML/ns/1.1">
<provenance creator="ONCVPSP-3.3.0+psml-3.3.0-73 (scalar-relativistic)"
 date="2018-03-09">
<annotation action="semilocal-pseudopotential-generation"
 action-cont="projectors-generation" />
<input-file name="oncvpsp-input">
<![CDATA[# atsym z nc nv iexc psfile
Hf 72 10 4 -001012 upf
# n l f
1 0 2.0
2 0 2.0
2 1 6.0
3 0 2.0
3 1 6.0
3 2 10.0
4 0 2.0
4 1 6.0
4 2 10.0
4 3 14.0
5 0 2.0
5 1 6.0
5 2 2.0
6 0 2.0
# lmax
3
# l rc ep ncon nbas qcut
0 1.7 0.0 4 8 7.0
1 1.7 0.0 4 8 7.4
2 1.7 0.0 4 9 6.6
3 2.4 0.5 4 8 6.8
# lloc lpopt rc5 dvloc0
4 5 1.7 0.0
# l nproj debl
0 2 2.0
1 2 1.5
2 2 1.8
3 2 2.5
# icmod fcfact rcfact
3 5.4 1.36
# epsh1 epsh2 depsh
-12.0 12.0 0.02
# rlmax drl
6.0 0.01
 0
]]>
</input-file>
</provenance>
<pseudo-atom-spec atomic-label="Hf" atomic-number="72" z-pseudo="12"
 flavor="Hamann&apos;s oncvpsp" relativity="scalar" spin-dft="no"
 core-corrections="yes">
<annotation pseudo-energy="-49.9644912360" />
<exchange-correlation>
<annotation oncvpsp-xc-code="-1012" oncvpsp-xc-type="libxc-interface" />
<libxc-info number-of-functionals="2">
<functional name="Slater exchange (LDA)" type="exchange" id="1" />
<functional name="Perdew &amp; Wang (LDA)" type="correlation" id="12" />
</libxc-info>
</exchange-correlation>
<valence-configuration total-valence-charge="12">
<shell n="5" l="s" occupation="2" />
<shell n="5" l="p" occupation="6" />
<shell n="5" l="d" occupation="2" />
<shell n="6" l="s" occupation="2" />
</valence-configuration>
</pseudo-atom-spec>
<grid npts="457">
<annotation type="sampled from oncvpsp log grid"
 recipe="r(i:1..N) = r1*exp(a*(i-1)) + r=0; resampled"
 recipe-cont="r1: scale; a: step" scale="0.694444444444E-05"
 step="0.119285708653E-01" delta="0.500000000000E-02" rmax="44.0200392416" />
<grid-data>
  0.000000000000E+00  5.026670407229E-03  1.004037965951E-02  1.506217053265E-02
  2.029552887432E-02  2.545834165589E-02  3.081188800123E-02  3.598031598865E-02
  4.102519090483E-02  4.622274527913E-02  5.146125203343E-02  5.661407921772E-02
  6.228286019135E-02  6.770677621320E-02  7.273027184416E-02  7.812648509314E-02
  8.392306969631E-02  8.908076201112E-02  9.455543260272E-02  1.003665621267E-01
  1.065348284690E-01  1.117412849051E-01  1.172021857236E-01  1.229299658586E-01
  1.289376679513E-01  1.352389720489E-01  1.418482267551E-01  1.470162864660E-01
  1.523726378587E-01  1.579241411011E-01  1.636779063026E-01  1.696413026204E-01
  1.758219676977E-01  1.822278174452E-01  1.888670561800E-01  1.957481871331E-01
  2.028800233396E-01  2.102716989265E-01  2.153484988254E-01  2.205478729811E-01
  2.258727808263E-01  2.313262532466E-01  2.369113943050E-01  2.426313830091E-01
  2.484894751204E-01  2.544890050078E-01  2.606333875447E-01  2.669261200535E-01
  2.733707842961E-01  2.799710485122E-01  2.867306695074E-01  2.936534947920E-01
  3.007434647703E-01  3.080046149837E-01  3.154410784079E-01  3.230570878049E-01
  3.308569781329E-01  3.388451890129E-01  3.470262672565E-01  3.554048694531E-01
  3.639857646212E-01  3.727738369222E-01  3.817740884408E-01  3.909916420322E-01
  4.004317442374E-01  4.100997682703E-01  4.200012170754E-01  4.250412316803E-01
  4.301417264604E-01  4.353034271780E-01  4.405270683041E-01  4.458133931238E-01
  4.511631538412E-01  4.565771116873E-01  4.620560370276E-01  4.676007094719E-01
  4.732119179856E-01  4.788904610014E-01  4.846371465334E-01  4.904527922918E-01
  4.963382257993E-01  5.022942845089E-01  5.083218159230E-01  5.144216777141E-01
  5.205947378467E-01  5.268418747008E-01  5.331639771972E-01  5.395619449236E-01
  5.460366882627E-01  5.525891285218E-01  5.592201980641E-01  5.659308404409E-01
  5.727220105262E-01  5.795946746525E-01  5.865498107483E-01  5.935884084773E-01
  6.007114693790E-01  6.079200070116E-01  6.152150470957E-01  6.225976276608E-01
  6.300687991928E-01  6.376296247831E-01  6.452811802805E-01  6.530245544439E-01
  6.608608490972E-01  6.687911792863E-01  6.768166734378E-01  6.849384735190E-01
  6.931577352013E-01  7.014756280237E-01  7.098933355600E-01  7.184120555867E-01
  7.270330002537E-01  7.357573962568E-01  7.445864850118E-01  7.535215228320E-01
  7.625637811060E-01  7.717145464792E-01  7.809751210370E-01  7.903468224894E-01
  7.998309843593E-01  8.094289561716E-01  8.191421036457E-01  8.289718088894E-01
  8.389194705961E-01  8.489865042433E-01  8.591743422942E-01  8.694844344017E-01
  8.799182476145E-01  8.904772665859E-01  9.011629937849E-01  9.119769497104E-01
  9.229206731069E-01  9.339957211842E-01  9.452036698384E-01  9.565461138764E-01
  9.680246672429E-01  9.796409632499E-01  9.913966548089E-01  1.003293414667E+00
  1.015332935643E+00  1.027516930870E+00  1.039847134041E+00  1.052325299649E+00
  1.064953203245E+00  1.077732641684E+00  1.090665433384E+00  1.103753418585E+00
  1.116998459608E+00  1.130402441123E+00  1.143967270417E+00  1.157694877662E+00
  1.171587216193E+00  1.185646262788E+00  1.199874017941E+00  1.214272506157E+00
  1.228843776230E+00  1.243589901545E+00  1.258512980364E+00  1.273615136128E+00
  1.288898517762E+00  1.304365299975E+00  1.320017683574E+00  1.335857895777E+00
  1.351888190527E+00  1.368110848813E+00  1.384528178999E+00  1.401142517147E+00
  1.417956227353E+00  1.434971702081E+00  1.452191362506E+00  1.469617658856E+00
  1.487253070762E+00  1.505100107611E+00  1.523161308903E+00  1.541439244609E+00
  1.559936515545E+00  1.578655753731E+00  1.597599622776E+00  1.616770818249E+00
  1.636172068068E+00  1.655806132885E+00  1.675675806480E+00  1.695783916157E+00
  1.716133323151E+00  1.736726923029E+00  1.757567646106E+00  1.778658457859E+00
  1.800002359353E+00  1.821602387665E+00  1.843461616317E+00  1.865583155713E+00
  1.887970153582E+00  1.910625795425E+00  1.933553304970E+00  1.956755944629E+00
  1.980237015965E+00  2.003999860157E+00  2.028047858478E+00  2.052384432780E+00
  2.077013045974E+00  2.101937202525E+00  2.127160448956E+00  2.152686374343E+00
  2.178518610835E+00  2.204660834165E+00  2.231116764175E+00  2.257890165345E+00
  2.284984847329E+00  2.312404665497E+00  2.340153521483E+00  2.368235363741E+00
  2.396654188106E+00  2.425414038363E+00  2.454519006824E+00  2.483973234905E+00
  2.513780913724E+00  2.543946284689E+00  2.574473640105E+00  2.605367323787E+00
  2.636631731672E+00  2.668271312452E+00  2.700290568202E+00  2.732694055020E+00
  2.765486383680E+00  2.798672220284E+00  2.832256286928E+00  2.866243362371E+00
  2.900638282719E+00  2.935445942112E+00  2.970671293417E+00  3.006319348938E+00
  3.042395181126E+00  3.078903923299E+00  3.115850770379E+00  3.153240979623E+00
  3.191079871379E+00  3.229372829835E+00  3.268125303793E+00  3.307342807439E+00
  3.347030921128E+00  3.387195292182E+00  3.427841635688E+00  3.468975735316E+00
  3.510603444140E+00  3.552730685469E+00  3.595363453695E+00  3.638507815139E+00
  3.682169908921E+00  3.726355947828E+00  3.771072219202E+00  3.816325085833E+00
  3.862120986863E+00  3.908466438705E+00  3.955368035969E+00  4.002832452401E+00
  4.050866441830E+00  4.099476839132E+00  4.148670561201E+00  4.198454607936E+00
  4.248836063231E+00  4.299822095990E+00  4.351419961142E+00  4.403637000675E+00
  4.456480644683E+00  4.509958412420E+00  4.564077913369E+00  4.618846848329E+00
  4.674273010509E+00  4.730364286635E+00  4.787128658075E+00  4.844574201972E+00
  4.902709092395E+00  4.961541601504E+00  5.021080100722E+00  5.081333061931E+00
  5.142309058674E+00  5.204016767378E+00  5.266464968587E+00  5.329662548210E+00
  5.393618498788E+00  5.458341920774E+00  5.523842023823E+00  5.590128128109E+00
  5.657209665646E+00  5.725096181634E+00  5.793797335813E+00  5.863322903843E+00
  5.933682778689E+00  6.004886972034E+00  6.076945615698E+00  6.149868963086E+00
  6.223667390643E+00  6.298351399331E+00  6.373931616123E+00  6.450418795517E+00
  6.527823821063E+00  6.606157706915E+00  6.685431599398E+00  6.765656778591E+00
  6.846844659934E+00  6.929006795854E+00  7.012154877404E+00  7.096300735933E+00
  7.181456344764E+00  7.267633820901E+00  7.354845426752E+00  7.443103571873E+00
  7.532420814735E+00  7.622809864512E+00  7.714283582886E+00  7.806854985881E+00
  7.900537245711E+00  7.995343692660E+00  8.091287816972E+00  8.188383270776E+00
  8.286643870025E+00  8.386083596465E+00  8.486716599623E+00  8.588557198818E+00
  8.691619885204E+00  8.795919323827E+00  8.901470355712E+00  9.008287999981E+00
  9.116387455981E+00  9.225784105453E+00  9.336493514718E+00  9.448531436895E+00
  9.561913814137E+00  9.676656779907E+00  9.792776661266E+00  9.910289981201E+00
  1.002921346098E+01  1.014956402251E+01  1.027135879078E+01  1.039461509627E+01
  1.051935047742E+01  1.064558268315E+01  1.077332967535E+01  1.090260963145E+01
  1.103344094703E+01  1.116584223839E+01  1.129983234526E+01  1.143543033340E+01
  1.157265549740E+01  1.171152736337E+01  1.185206569173E+01  1.199429048003E+01
  1.213822196579E+01  1.228388062938E+01  1.243128719693E+01  1.258046264329E+01
  1.273142819501E+01  1.288420533335E+01  1.303881579735E+01  1.319528158692E+01
  1.335362496597E+01  1.351386846556E+01  1.367603488714E+01  1.384014730579E+01
  1.400622907346E+01  1.417430382234E+01  1.434439546821E+01  1.451652821383E+01
  1.469072655239E+01  1.486701527102E+01  1.504541945427E+01  1.522596448773E+01
  1.540867606158E+01  1.559358017432E+01  1.578070313641E+01  1.597007157405E+01
  1.616171243293E+01  1.635565298213E+01  1.655192081792E+01  1.675054386773E+01
  1.695155039414E+01  1.715496899887E+01  1.736082862686E+01  1.756915857038E+01
  1.777998847323E+01  1.799334833491E+01  1.820926851492E+01  1.842777973710E+01
  1.864891309395E+01  1.887270005108E+01  1.909917245169E+01  1.932836252111E+01
  1.956030287136E+01  1.979502650582E+01  2.003256682389E+01  2.027295762577E+01
  2.051623311728E+01  2.076242791469E+01  2.101157704967E+01  2.126371597426E+01
  2.151888056596E+01  2.177710713275E+01  2.203843241834E+01  2.230289360736E+01
  2.257052833065E+01  2.284137467062E+01  2.311547116666E+01  2.339285682066E+01
  2.367357110251E+01  2.395765395574E+01  2.424514580321E+01  2.453608755285E+01
  2.483052060348E+01  2.512848685072E+01  2.543002869293E+01  2.573518903725E+01
  2.604401130570E+01  2.635653944136E+01  2.667281791466E+01  2.699289172964E+01
  2.731680643039E+01  2.764460810756E+01  2.797634340485E+01  2.831205952571E+01
  2.865180424001E+01  2.899562589089E+01  2.934357340158E+01  2.969569628240E+01
  3.005204463779E+01  3.041266917345E+01  3.077762120353E+01  3.114695265797E+01
  3.152071608987E+01  3.189896468294E+01  3.228175225914E+01  3.266913328625E+01
  3.306116288568E+01  3.345789684031E+01  3.385939160240E+01  3.426570430162E+01
  3.467689275324E+01  3.509301546628E+01  3.551413165188E+01  3.594030123170E+01
  3.637158484648E+01  3.680804386464E+01  3.724974039101E+01  3.769673727571E+01
  3.814909812302E+01  3.860688730049E+01  3.907016994810E+01  3.953901198747E+01
  4.001348013132E+01  4.049364189290E+01  4.097956559561E+01  4.147132038276E+01
  4.196897622736E+01  4.247260394208E+01  4.298227518939E+01  4.349806249166E+01
  4.402003924156E+01
</grid-data>
</grid>
<valence-charge total-charge="12" is-unscreening-charge="yes"
 rescaled-to-z-pseudo="no">
<radfunc>
<data npts="457">
  1.344681165736E+00  1.345162688810E+00  1.346602250726E+00  1.349004376657E+00
  1.352530093320E+00  1.357030458809E+00  1.362768855614E+00  1.369343588076E+00
  1.376740980905E+00  1.385373941257E+00  1.395113063245E+00  1.405708788575E+00
  1.418528174655E+00  1.431932863309E+00  1.445340274126E+00  1.460804104203E+00
  1.478638413969E+00  1.495570363511E+00  1.514636344474E+00  1.536103511833E+00
  1.560271910807E+00  1.581776508697E+00  1.605415803384E+00  1.631399247828E+00
  1.659956238489E+00  1.691337855811E+00  1.725818712550E+00  1.753892741381E+00
  1.784014995305E+00  1.816331342697E+00  1.850997363560E+00  1.888178860600E+00
  1.928052367671E+00  1.970805647448E+00  2.016638168062E+00  2.065761545826E+00
  2.118399938101E+00  2.174790366625E+00  2.214591421156E+00  2.256248305775E+00
  2.299840996423E+00  2.345452058542E+00  2.393166609502E+00  2.443072258982E+00
  2.495259023824E+00  2.549819213503E+00  2.606847281864E+00  2.666439640280E+00
  2.728694426864E+00  2.793711225751E+00  2.861590729872E+00  2.932434339939E+00
  3.006343691682E+00  3.083420102631E+00  3.163763928970E+00  3.247473822226E+00
  3.334645874762E+00  3.425372642319E+00  3.519742031083E+00  3.617836036178E+00
  3.719729317885E+00  3.825487601544E+00  3.935165886911E+00  4.048806452803E+00
  4.166436643353E+00  4.288066423001E+00  4.413685688787E+00  4.477982016445E+00
  4.543261330541E+00  4.609515372675E+00  4.676734032372E+00  4.744905232825E+00
  4.814014812609E+00  4.884046403445E+00  4.954981304113E+00  5.026798350642E+00
  5.099473782958E+00  5.172981108184E+00  5.247290960853E+00  5.322370960320E+00
  5.398185565719E+00  5.474695928862E+00  5.551859745536E+00  5.629631105702E+00
  5.707960343193E+00  5.786793885535E+00  5.866074104642E+00  5.945739169153E+00
  6.025722899318E+00  6.105954625369E+00  6.186359050458E+00  6.266856119273E+00
  6.347360893596E+00  6.427783436111E+00  6.508028703906E+00  6.587996453185E+00
  6.667581156817E+00  6.746671936436E+00  6.825152510910E+00  6.902901163081E+00
  6.979790726755E+00  7.055688596025E+00  7.130456759041E+00  7.203951858446E+00
  7.276025280711E+00  7.346523276643E+00  7.415287115372E+00  7.482153274096E+00
  7.546953665863E+00  7.609515907591E+00  7.669663630486E+00  7.727216834877E+00
  7.781992291362E+00  7.833803989994E+00  7.882463639001E+00  7.927781214292E+00
  7.969565560702E+00  8.007625045578E+00  8.041768264939E+00  8.071804801976E+00
  8.097546037195E+00  8.118806008974E+00  8.135402322708E+00  8.147157106102E+00
  8.153898007522E+00  8.155459233560E+00  8.151682621301E+00  8.142418739948E+00
  8.127528015721E+00  8.106881873147E+00  8.080363885042E+00  8.047870922739E+00
  8.009314297340E+00  7.964620882066E+00  7.913734205111E+00  7.856615501837E+00
  7.793244714624E+00  7.723621428312E+00  7.647765728906E+00  7.565718973058E+00
  7.477544455896E+00  7.383327964935E+00  7.283178208197E+00  7.177227105219E+00
  7.065629930409E+00  6.948565299141E+00  6.826234988192E+00  6.698863583432E+00
  6.566697949267E+00  6.430006516021E+00  6.289078383314E+00  6.144222239511E+00
  5.995765099354E+00  5.844050864108E+00  5.689438710692E+00  5.532301318472E+00
  5.373022944518E+00  5.211997360199E+00  5.049625663916E+00  4.886313986581E+00
  4.722471108066E+00  4.558506004265E+00  4.394825345654E+00  4.231830969189E+00
  4.069917346217E+00  3.909469069602E+00  3.750858383681E+00  3.594442780827E+00
  3.440562688451E+00  3.289539270160E+00  3.141672364521E+00  2.997238584539E+00
  2.856489600428E+00  2.719650627615E+00  2.586919141073E+00  2.458463836037E+00
  2.334423853808E+00  2.214908289672E+00  2.099995997874E+00  1.989735705998E+00
  1.884146448044E+00  1.783218321790E+00  1.686913571851E+00  1.595167995076E+00
  1.507892659698E+00  1.424976816063E+00  1.346294562879E+00  1.271713544290E+00
  1.201096186477E+00  1.134300798496E+00  1.071182636218E+00  1.011594881409E+00
  9.553895505368E-01  9.024183329932E-01  8.525333591419E-01  8.055878992565E-01
  7.614369947888E-01  7.199380237538E-01  6.809512023301E-01  6.443400250479E-01
  6.099716461594E-01  5.777172049793E-01  5.474520981308E-01  5.190562017481E-01
  4.924140467685E-01  4.674149504961E-01  4.439531076411E-01  4.219276440317E-01
  4.012426361676E-01  3.818070997292E-01  3.635349500885E-01  3.463449377753E-01
  3.301605617519E-01  3.149099632314E-01  3.005258026475E-01  2.869451222520E-01
  2.741091966696E-01  2.619633735998E-01  2.504569067019E-01  2.395427825544E-01
  2.291775434264E-01  2.193211074548E-01  2.099365876753E-01  2.009901112120E-01
  1.924506397997E-01  1.842897926712E-01  1.764816727378E-01  1.690026968442E-01
  1.618314307907E-01  1.549484296979E-01  1.483360841968E-01  1.419784728308E-01
  1.358612209770E-01  1.299713665119E-01  1.242972323804E-01  1.188283061577E-01
  1.135551266408E-01  1.084691774504E-01  1.035627875784E-01  9.882903877822E-02
  9.426167965396E-02  8.985504627941E-02  8.560398914698E-02  8.150380622692E-02
  7.755018189819E-02  7.373913149746E-02  7.006695122215E-02  6.653017311444E-02
  6.312552484823E-02  5.984989403801E-02  5.670029678777E-02  5.367385019972E-02
  5.076774856569E-02  4.797924296868E-02  4.530562402873E-02  4.274420753389E-02
  4.029232270620E-02  3.794730286124E-02  3.570647823005E-02  3.356717072265E-02
  3.152669042294E-02  2.958233361648E-02  2.773138216373E-02  2.597110404125E-02
  2.429875488897E-02  2.271158040777E-02  2.120681946612E-02  1.978170778444E-02
  1.843348207659E-02  1.715938453831E-02  1.595666758231E-02  1.482259872950E-02
  1.375446557494E-02  1.274958075601E-02  1.180528685849E-02  1.091896120431E-02
  1.008802047217E-02  9.309925109088E-03  8.582183497748E-03  7.902355850482E-03
  7.268057806397E-03  6.676963713522E-03  6.126809582616E-03  5.615395703743E-03
  5.140588920762E-03  4.700324562564E-03  4.292608033176E-03  3.915516065815E-03
  3.567197648619E-03  3.245874632048E-03  2.949842029981E-03  2.677468028236E-03
  2.427193715672E-03  2.197532554232E-03  1.987069605199E-03  1.794460529679E-03
  1.618430381794E-03  1.457772213389E-03  1.311345509177E-03  1.178074471181E-03
  1.056946171144E-03  9.470085892351E-04  8.473685569074E-04  7.571896212037E-04
  6.756898469813E-04  6.021395739077E-04  5.358591389000E-04  4.762165902011E-04
  4.226253876391E-04  3.745421134954E-04  3.314642072920E-04  2.929277291452E-04
  2.585051616124E-04  2.278032590045E-04  2.004609514142E-04  1.761473097487E-04
  1.545595771201E-04  1.354212710495E-04  1.184803600841E-04  1.035075176132E-04
  9.029445490520E-05  7.865233467560E-05  6.841026583673E-05  5.941387947690E-05
  5.152398556772E-05  4.461530940675E-05  3.857530636533E-05  3.330305312865E-05
  2.870821328506E-05  2.471007484216E-05  2.123665701587E-05  1.822388345346E-05
  1.561481890908E-05  1.335896628714E-05  1.141162090314E-05  9.733278778451E-06
  8.289095782751E-06  7.048394461813E-06  5.984215435737E-06  5.072910320548E-06
  4.293773211307E-06  3.628707864579E-06  3.061927829567E-06  2.579686898035E-06
  2.170037370810E-06  1.822613771203E-06  1.528439771095E-06  1.279756232043E-06
  1.069868400005E-06  8.930104269305E-07  7.442255242421E-07  6.192601813954E-07
  5.144710062784E-07  4.267428627119E-07  3.534170932009E-07  2.922287220339E-07
  2.412516346113E-07  1.988508233731E-07  1.636408788670E-07  1.344499863893E-07
  1.102887643656E-07  9.032335037810E-08  7.385220470544E-08  6.028615967219E-08
  4.913129628103E-08  3.997427781380E-08  3.246981364707E-08  2.632996574424E-08
  2.131504547061E-08  1.722587984216E-08  1.389725436227E-08  1.119236451692E-08
  8.998130067033E-09  7.221245762040E-09  5.784859252426E-09  4.625782034976E-09
  3.692152441216E-09  2.941481178640E-09  2.339019941281E-09  1.856402290745E-09
  1.470513525221E-09  1.162552742134E-09  9.172558859404E-10  7.222533692132E-10
  5.675399637104E-10  4.450381684313E-10  3.482392535737E-10  2.719087231402E-10
  2.118450966973E-10  1.646827367676E-10  1.277309899759E-10  9.884320869494E-11
  7.631031139447E-11  5.877445520824E-11  4.515916014242E-11  3.461286385849E-11
  2.646341878821E-11  2.018148633328E-11  1.535115043688E-11  1.164637710290E-11
  8.812197839417E-12  6.649702276139E-12  5.004095740668E-12  3.755217594830E-12
  2.810030850990E-12  2.096687381959E-12  1.559849560820E-12  1.157011465142E-12
  8.556133875886E-13  6.307844152548E-13  4.635810149298E-13  3.396163300244E-13
  2.479964495293E-13  1.804971682538E-13  1.309289918062E-13  9.464746217092E-14
  5.903217200547E-16  3.834146933016E-16  2.478126985047E-16  1.593777519399E-16
  1.019894807447E-16  6.493524814472E-17  4.113169879090E-17  2.591892980941E-17
  1.624705664396E-17  1.013029609873E-17  6.282488095407E-18  3.875031499397E-18
  2.376973974514E-18  1.449941558608E-18  8.794767406768E-19  5.304159355962E-19
  3.180514009176E-19  1.895991762623E-19  1.123578546279E-19  6.618619198341E-20
  3.875226116412E-20  2.255073769941E-20  1.304146805800E-20  7.494830552081E-21
  4.279903285955E-21  2.428341083937E-21  1.368848574910E-21  7.665440238159E-22
  4.264030872389E-22  2.355972804858E-22  1.292860361390E-22  7.045773223289E-23
  3.812986027870E-23  2.048918137502E-23  1.093124513121E-23  5.789783251579E-24
  3.044143369867E-24  0.000000000000E+00  0.000000000000E+00  0.000000000000E+00
  0.000000000000E+00
</data>
</radfunc>
</valence-charge>
<pseudocore-charge matching-radius="1.02751693087"
 number-of-continuous-derivatives="4">
<annotation model-charge-form="Teter function with specified parameters" />
<radfunc>
<data npts="290">
  4.060554930569E+01  4.060388934925E+01  4.059892696853E+01  4.059064730202E+01
  4.057849668044E+01  4.056299032841E+01  4.054322341584E+01  4.052058270137E+01
  4.049511811329E+01  4.046541228784E+01  4.043191568689E+01  4.039549146354E+01
  4.035144881606E+01  4.030542518531E+01  4.025942255711E+01  4.020640147075E+01
  4.014530198107E+01  4.008734233756E+01  4.002213356178E+01  3.994878237104E+01
  3.986628900664E+01  3.979296497791E+01  3.971244488030E+01  3.962403853204E+01
  3.952699292438E+01  3.942048721756E+01  3.930362749514E+01  3.920860599988E+01
  3.910677403076E+01  3.899766253162E+01  3.888077307316E+01  3.875557647370E+01
  3.862151143249E+01  3.847798319234E+01  3.832436225129E+01  3.815998314711E+01
  3.798414334224E+01  3.779610224170E+01  3.766357970921E+01  3.752504808317E+01
  3.738025883219E+01  3.722895554878E+01  3.707087395469E+01  3.690574194019E+01
  3.673327964148E+01  3.655319956070E+01  3.636520673366E+01  3.616899895049E+01
  3.596426703504E+01  3.575069518915E+01  3.552796140834E+01  3.529573797600E+01
  3.505369204339E+01  3.480148630345E+01  3.453877976659E+01  3.426522864720E+01
  3.398048736987E+01  3.368420970473E+01  3.337605004167E+01  3.305566481309E+01
  3.272271407556E+01  3.237686326011E+01  3.201778510143E+01  3.164516175567E+01
  3.125868711613E+01  3.085806933588E+01  3.044303356510E+01  3.023002841390E+01
  3.001332491012E+01  2.979289483293E+01  2.956871161967E+01  2.934075047808E+01
  2.910898850219E+01  2.887340479180E+01  2.863398057565E+01  2.839069933808E+01
  2.814354694921E+01  2.789251179867E+01  2.763758493256E+01  2.737876019378E+01
  2.711603436549E+01  2.684940731761E+01  2.657888215608E+01  2.630446537495E+01
  2.602616701081E+01  2.574400079956E+01  2.545798433506E+01  2.516813922957E+01
  2.487449127554E+01  2.457707060844E+01  2.427591187021E+01  2.397105437305E+01
  2.366254226288E+01  2.335042468222E+01  2.303475593184E+01  2.271559563056E+01
  2.239300887278E+01  2.206706638290E+01  2.173784466615E+01  2.140542615483E+01
  2.106989934950E+01  2.073135895401E+01  2.038990600377E+01  2.004564798614E+01
  1.969869895211E+01  1.934917961825E+01  1.899721745791E+01  1.864294678056E+01
  1.828650879818E+01  1.792805167757E+01  1.756773057733E+01  1.720570766839E+01
  1.684215213675E+01  1.647724016728E+01  1.611115490712E+01  1.574408640763E+01
  1.537623154340E+01  1.500779390705E+01  1.463898367867E+01  1.427001746844E+01
  1.390111813134E+01  1.353251455270E+01  1.316444140342E+01  1.279713886381E+01
  1.243085231498E+01  1.206583199699E+01  1.170233263276E+01  1.134061301717E+01
  1.098093557079E+01  1.062356585772E+01  1.026877206743E+01  9.916824460476E+00
  9.567994778208E+00  9.222555616997E+00  8.880779767428E+00  8.542939519454E+00
  8.209305934643E+00  7.880148086975E+00  7.555732273985E+00  7.236321200332E+00
  6.922173136281E+00  6.613541053875E+00  6.310671743996E+00  6.013804917867E+00
  5.723172296914E+00  5.438996695332E+00  5.161491100026E+00  4.890857753029E+00
  4.627287241816E+00  4.370957603312E+00  4.122033447711E+00  3.880665108524E+00
  3.646987825544E+00  3.421120967644E+00  3.203167302514E+00  2.993212320558E+00
  2.791323620266E+00  2.597550362351E+00  2.411922799898E+00  2.234451891590E+00
  2.065129004870E+00  1.903925715542E+00  1.750793709877E+00  1.605664794796E+00
  1.468451021010E+00  1.339044923298E+00  1.217319881207E+00  1.103130602531E+00
  9.963137308453E-01  8.966885771855E-01  8.040579747502E-01  7.182092541211E-01
  6.389153351142E-01  5.659359298994E-01  4.990188505290E-01  4.379014124972E-01
  3.823119244371E-01  3.319712525822E-01  2.865944471921E-01  2.458924168035E-01
  2.095736349452E-01  1.773458628811E-01  1.489178710501E-01  1.240011411857E-01
  1.023115306541E-01  8.357088037003E-02  6.750854776880E-02  5.386284673466E-02
  4.238237714868E-02  3.282722781030E-02  2.497003792468E-02  1.859690411988E-02
  1.350812205202E-02  9.518754050555E-03  6.459016915763E-03  4.174486865367E-03
  2.526121684635E-03  1.390103303140E-03  6.575072331815E-04  2.338084832270E-04
  3.823662369434E-05  2.995547576830E-06  7.236604976206E-05  2.017115635176E-04
  3.564091626545E-04  5.107291938552E-04  6.466875876854E-04  7.528949658094E-04
  8.234260905802E-04  8.567319864858E-04  8.546152182232E-04  8.212863783429E-04
  7.625168832505E-04  6.848997878736E-04  5.952266158475E-04  4.999842912657E-04
  4.049722915503E-04  3.150362690925E-04  2.339107645705E-04  1.641604049664E-04
  1.072062796107E-04  6.342213342657E-05  3.228369612475E-05  1.255393413969E-05
  2.487284966368E-06  3.698617799160E-08  3.051376479611E-06  9.447415932139E-06
  1.735250328147E-05  2.520878775495E-05  3.183738935815E-05  3.646305699265E-05
  3.870261486785E-05  3.852290142169E-05  3.617565057001E-05  3.211780582250E-05
  2.692604953947E-05  2.121388585294E-05  1.555850803498E-05  1.044303431545E-05
  6.217679194618E-06  3.081238888395E-06  1.082120678428E-06  1.362402025307E-07
  5.762437842876E-08  5.966215718953E-07  1.480306115066E-06  2.449974774227E-06
  3.291502637133E-06  3.855627191189E-06  4.066786176352E-06  3.920743991110E-06
  3.472697652373E-06  2.818675220693E-06  2.073693928277E-06  1.350265184840E-06
  7.404286096888E-07  3.036520294013E-07  6.179706246016E-08  0.000000000000E+00
  0.000000000000E+00  0.000000000000E+00  0.000000000000E+00  0.000000000000E+00
  0.000000000000E+00  0.000000000000E+00  0.000000000000E+00  0.000000000000E+00
  0.000000000000E+00  0.000000000000E+00  0.000000000000E+00  0.000000000000E+00
  0.000000000000E+00  0.000000000000E+00  0.000000000000E+00  0.000000000000E+00
  0.000000000000E+00  0.000000000000E+00  0.000000000000E+00  0.000000000000E+00
  0.000000000000E+00  0.000000000000E+00  0.000000000000E+00  0.000000000000E+00
  0.000000000000E+00  0.000000000000E+00  0.000000000000E+00  0.000000000000E+00
  0.000000000000E+00  0.000000000000E+00
</data>
</radfunc>
</pseudocore-charge>
<semilocal-potentials set="scalar_relativistic">
<slps n="5" l="s" rc="1.71613332315" eref="-2.46862712920">
<radfunc>
<data npts="290">
 -3.145163855321E+00 -3.146405293361E+00 -3.150115465592E+00 -3.156302353649E+00
 -3.165373891868E+00 -3.176937197155E+00 -3.191655610380E+00 -3.208483554503E+00
 -3.227371819901E+00 -3.249354587105E+00 -3.274076393208E+00 -3.300879579662E+00
 -3.333178985925E+00 -3.366803284707E+00 -3.400282311282E+00 -3.438708882156E+00
 -3.482778725035E+00 -3.524375952102E+00 -3.570935557684E+00 -3.623007151610E+00
 -3.681190229274E+00 -3.732572680751E+00 -3.788639548059E+00 -3.849769674528E+00
 -3.916362917072E+00 -3.988839307098E+00 -4.067637685073E+00 -4.131158820424E+00
 -4.198689680589E+00 -4.270431518041E+00 -4.346588265935E+00 -4.427365374253E+00
 -4.512968449177E+00 -4.603601680849E+00 -4.699466045807E+00 -4.800757272011E+00
 -4.907663556708E+00 -5.020363030350E+00 -5.098796685715E+00 -5.179924046052E+00
 -5.263786718530E+00 -5.350422293261E+00 -5.439863872814E+00 -5.532139582689E+00
 -5.627272064256E+00 -5.725277951978E+00 -5.826167337049E+00 -5.929943219882E+00
 -6.036600954208E+00 -6.146127685865E+00 -6.258501789618E+00 -6.373692307686E+00
 -6.491658393850E+00 -6.612348767274E+00 -6.735701180347E+00 -6.861641904958E+00
 -6.990085241754E+00 -7.120933056894E+00 -7.254074350816E+00 -7.389384863398E+00
 -7.526726719732E+00 -7.665948120482E+00 -7.806883080476E+00 -7.949351218825E+00
 -8.093157603425E+00 -8.238092652228E+00 -8.383932093162E+00 -8.457116862514E+00
 -8.530436984076E+00 -8.603860311134E+00 -8.677353793547E+00 -8.750883483612E+00
 -8.824414542896E+00 -8.897911250007E+00 -8.971337009308E+00 -9.044654360567E+00
 -9.117824989533E+00 -9.190809739427E+00 -9.263568623348E+00 -9.336060837570E+00
 -9.408244775734E+00 -9.480078043925E+00 -9.551517476618E+00 -9.622519153488E+00
 -9.693038417094E+00 -9.763029891405E+00 -9.832447501192E+00 -9.901244492273E+00
 -9.969373452613E+00 -1.003678633429E+01 -1.010343447633E+01 -1.016926862843E+01
 -1.023423897557E+01 -1.029829516354E+01 -1.036138632543E+01 -1.042346110901E+01
 -1.048446770522E+01 -1.054435387753E+01 -1.060306699249E+01 -1.066055405132E+01
 -1.071676172260E+01 -1.077163637618E+01 -1.082512411834E+01 -1.087717082813E+01
 -1.092772219509E+01 -1.097672375833E+01 -1.102412094693E+01 -1.106985912191E+01
 -1.111388361954E+01 -1.115613979627E+01 -1.119657307509E+01 -1.123512899356E+01
 -1.127175325329E+01 -1.130639177101E+01 -1.133899073117E+01 -1.136949664009E+01
 -1.139785638142E+01 -1.142401727315E+01 -1.144792712574E+01 -1.146953430160E+01
 -1.148878777541E+01 -1.150563719548E+01 -1.152003294572E+01 -1.153192620812E+01
 -1.154126902541E+01 -1.154801436379E+01 -1.155211617526E+01 -1.155352945944E+01
 -1.155221032441E+01 -1.154811604628E+01 -1.154120512732E+01 -1.153143735208E+01
 -1.151877384146E+01 -1.150317710435E+01 -1.148461108670E+01 -1.146304121797E+01
 -1.143843445490E+01 -1.141075932281E+01 -1.137998595483E+01 -1.134608612953E+01
 -1.130903330793E+01 -1.126880267099E+01 -1.122537115926E+01 -1.117871751670E+01
 -1.112882234136E+01 -1.107566814608E+01 -1.101923943344E+01 -1.095952278950E+01
 -1.089650700249E+01 -1.083018321300E+01 -1.076054510393E+01 -1.068758913952E+01