<?xml version="1.0" encoding="UTF-8" ?>
<psml version="1.1" energy_unit="hartree" length_unit="bohr"
 uuid="d8184160-23d3-11e8-7099-3849f3f79689"
 xmlns="http://esl.cecam.org/PSML/ns/1.1">
<provenance creator="ONCVPSP-3.3.0+psml-3.3.0-73 (scalar-relativistic)"
 date="2018-03-09">
<annotation action="semilocal-pseudopotential-generation"
 action-cont="projectors-generation" />
<input-file name="oncvpsp-input">
<![CDATA[# atsym z nc nv iexc psfile
Hg 80 10 4 -001012 upf
# n l f
1 0 2.0
2 0 2.0
2 1 6.0
3 0 2.0
3 1 6.0
3 2 10.0
4 0 2.0
4 1 6.0
4 2 10.0
4 3 14.0
5 0 2.0
5 1 6.0
5 2 10.0
6 0 2.0
# lmax
3
# l rc ep ncon nbas qcut
0 1.6 0.0 4 8 8.0
1 1.6 0.0 4 8 7.8
2 1.45 0.0 4 8 8.8
3 1.6 0.1 4 8 6.8
# lloc lpopt rc5 dvloc0
4 5 1.45 0.0
# l nproj debl
0 2 1.0
1 2 2.8
2 2 1.8
3 1 1.5
# icmod fcfact rcfact
3 5.0 1.37
# epsh1 epsh2 depsh
-12.0 12.0 0.02
# rlmax drl
6.0 0.01
 0
]]>
</input-file>
</provenance>
<pseudo-atom-spec atomic-label="Hg" atomic-number="80" z-pseudo="20"
 flavor="Hamann&apos;s oncvpsp" relativity="scalar" spin-dft="no"
 core-corrections="yes">
<annotation pseudo-energy="-156.393361307" />
<exchange-correlation>
<annotation oncvpsp-xc-code="-1012" oncvpsp-xc-type="libxc-interface" />
<libxc-info number-of-functionals="2">
<functional name="Slater exchange (LDA)" type="exchange" id="1" />
<functional name="Perdew &amp; Wang (LDA)" type="correlation" id="12" />
</libxc-info>
</exchange-correlation>
<valence-configuration total-valence-charge="20">
<shell n="5" l="s" occupation="2" />
<shell n="5" l="p" occupation="6" />
<shell n="5" l="d" occupation="10" />
<shell n="6" l="s" occupation="2" />
</valence-configuration>
</pseudo-atom-spec>
<grid npts="457">
<annotation type="sampled from oncvpsp log grid"
 recipe="r(i:1..N) = r1*exp(a*(i-1)) + r=0; resampled"
 recipe-cont="r1: scale; a: step" scale="0.625000000000E-05"
 step="0.119285708653E-01" delta="0.500000000000E-02" rmax="44.1080184274" />
<grid-data>
  0.000000000000E+00  5.036716794685E-03  1.006044653004E-02  1.509227403831E-02
  2.009495242827E-02  2.520674221625E-02  3.050738058830E-02  3.562473008824E-02
  4.110718453678E-02  4.631512683008E-02  5.156410335150E-02  5.672722906228E-02
  6.240733975628E-02  6.784209610731E-02  7.287563178056E-02  7.828262999150E-02
  8.409079974550E-02  8.925880031034E-02  9.474441267004E-02  1.005671564146E-01
  1.067477507570E-01  1.119646129040E-01  1.174364279700E-01  1.231756557421E-01
  1.291953649286E-01  1.355092629178E-01  1.421317269910E-01  1.473101156723E-01
  1.526771723584E-01  1.582397709279E-01  1.640050357007E-01  1.699803505620E-01
  1.761733684197E-01  1.825920210056E-01  1.892445290339E-01  1.961394127302E-01
  2.032855027437E-01  2.106919514570E-01  2.157788979330E-01  2.209886636447E-01
  2.263242139397E-01  2.317885857611E-01  2.373848893757E-01  2.431163101448E-01
  2.489861103369E-01  2.549976309849E-01  2.611542937874E-01  2.674596030566E-01
  2.739171477128E-01  2.805306033271E-01  2.873037342139E-01  2.942403955727E-01
  3.013445356834E-01  3.086201981530E-01  3.160715242172E-01  3.237027550979E-01
  3.315182344170E-01  3.395224106687E-01  3.477198397519E-01  3.561151875629E-01
  3.647132326514E-01  3.735188689406E-01  3.825371085123E-01  3.917730844602E-01
  4.012320538114E-01  4.109194005186E-01  4.208406385247E-01  4.258907261870E-01
  4.310014149013E-01  4.361734318801E-01  4.414075130626E-01  4.467044032194E-01
  4.520648560580E-01  4.574896343307E-01  4.629795099427E-01  4.685352640620E-01
  4.741576872307E-01  4.798475794775E-01  4.856057504312E-01  4.914330194364E-01
  4.973302156697E-01  5.032981782577E-01  5.093377563968E-01  5.154498094735E-01
  5.216352071872E-01  5.278948296735E-01  5.342295676296E-01  5.406403224411E-01
  5.471280063104E-01  5.536935423861E-01  5.603378648948E-01  5.670619192735E-01
  5.738666623048E-01  5.807530622524E-01  5.877220989995E-01  5.947747641875E-01
  6.019120613577E-01  6.091350060940E-01  6.164446261671E-01  6.238419616811E-01
  6.313280652213E-01  6.389040020040E-01  6.465708500280E-01  6.543297002283E-01
  6.621816566311E-01  6.701278365107E-01  6.781693705488E-01  6.863074029954E-01
  6.945430918313E-01  7.028776089333E-01  7.113121402405E-01  7.198478859234E-01
  7.284860605545E-01  7.372278932811E-01  7.460746280005E-01  7.550275235365E-01
  7.640878538189E-01  7.732569080648E-01  7.825359909615E-01  7.919264228531E-01
  8.014295399273E-01  8.110466944064E-01  8.207792547393E-01  8.306286057962E-01
  8.405961490657E-01  8.506833028545E-01  8.608915024888E-01  8.712222005187E-01
  8.816768669249E-01  8.922569893280E-01  9.029640731999E-01  9.137996420783E-01
  9.247652377832E-01  9.358624206366E-01  9.470927696843E-01  9.584578829205E-01
  9.699593775155E-01  9.815988900457E-01  9.933780767263E-01  1.005298613647E+00
  1.017362197011E+00  1.029570543375E+00  1.041925389895E+00  1.054428494574E+00
  1.067081636509E+00  1.079886616147E+00  1.092845255541E+00  1.105959398607E+00
  1.119230911391E+00  1.132661682327E+00  1.146253622515E+00  1.160008665985E+00
  1.173928769977E+00  1.188015915217E+00  1.202272106200E+00  1.216699371474E+00
  1.231299763932E+00  1.246075361099E+00  1.261028265432E+00  1.276160604617E+00
  1.291474531873E+00  1.306972226255E+00  1.322655892970E+00  1.338527763686E+00
  1.354590096850E+00  1.370845178012E+00  1.387295320148E+00  1.403942863990E+00
  1.420790178358E+00  1.437839660498E+00  1.455093736424E+00  1.472554861261E+00
  1.490225519597E+00  1.508108225832E+00  1.526205524542E+00  1.544519990836E+00
  1.563054230726E+00  1.581810881495E+00  1.600792612073E+00  1.620002123418E+00
  1.639442148899E+00  1.659115454686E+00  1.679024840142E+00  1.699173138224E+00
  1.719563215882E+00  1.740197974473E+00  1.761080350166E+00  1.782213314368E+00
  1.803599874141E+00  1.825243072631E+00  1.847145989502E+00  1.869311741376E+00
  1.891743482273E+00  1.914444404060E+00  1.937417736909E+00  1.960666749752E+00
  1.984194750749E+00  2.008005087758E+00  2.032101148811E+00  2.056486362596E+00
  2.081164198948E+00  2.106138169335E+00  2.131411827367E+00  2.156988769295E+00
  2.182872634527E+00  2.209067106141E+00  2.235575911415E+00  2.262402822352E+00
  2.289551656220E+00  2.317026276095E+00  2.344830591408E+00  2.372968558505E+00
  2.401444181207E+00  2.430261511381E+00  2.459424649518E+00  2.488937745312E+00
  2.518804998256E+00  2.549030658235E+00  2.579619026134E+00  2.610574454447E+00
  2.641901347901E+00  2.673604164076E+00  2.705687414044E+00  2.738155663013E+00
  2.771013530969E+00  2.804265693341E+00  2.837916881661E+00  2.871971884241E+00
  2.906435546852E+00  2.941312773414E+00  2.976608526695E+00  3.012327829015E+00
  3.048475762963E+00  3.085057472119E+00  3.122078161784E+00  3.159543099726E+00
  3.197457616923E+00  3.235827108326E+00  3.274657033625E+00  3.313952918029E+00
  3.353720353045E+00  3.393964997282E+00  3.434692577249E+00  3.475908888176E+00
  3.517619794834E+00  3.559831232372E+00  3.602549207161E+00  3.645779797647E+00
  3.689529155219E+00  3.733803505081E+00  3.778609147142E+00  3.823952456908E+00
  3.869839886391E+00  3.916277965027E+00  3.963273300608E+00  4.010832580215E+00
  4.058962571178E+00  4.107670122032E+00  4.156962163496E+00  4.206845709458E+00
  4.257327857972E+00  4.308415792267E+00  4.360116781774E+00  4.412438183156E+00
  4.465387441354E+00  4.518972090650E+00  4.573199755738E+00  4.628078152807E+00
  4.683615090640E+00  4.739818471728E+00  4.796696293389E+00  4.854256648909E+00
  4.912507728696E+00  4.971457821441E+00  5.031115315298E+00  5.091488699081E+00
  5.152586563470E+00  5.214417602232E+00  5.276990613459E+00  5.340314500820E+00
  5.404398274830E+00  5.469251054128E+00  5.534882066778E+00  5.601300651579E+00
  5.668516259398E+00  5.736538454511E+00  5.805376915965E+00  5.875041438956E+00
  5.945541936224E+00  6.016888439459E+00  6.089091100732E+00  6.162160193941E+00
  6.236106116268E+00  6.310939389663E+00  6.386670662339E+00  6.463310710287E+00
  6.540870438811E+00  6.619360884077E+00  6.698793214686E+00  6.779178733262E+00
  6.860528878061E+00  6.942855224598E+00  7.026169487293E+00  7.110483521140E+00
  7.195809323394E+00  7.282159035275E+00  7.369544943698E+00  7.457979483022E+00
  7.547475236819E+00  7.638044939660E+00  7.729701478936E+00  7.822457896684E+00
  7.916327391444E+00  8.011323320141E+00  8.107459199983E+00  8.204748710383E+00
  8.303205694907E+00  8.402844163246E+00  8.503678293205E+00  8.605722432724E+00
  8.708991101916E+00  8.813498995139E+00  8.919260983081E+00  9.026292114878E+00
  9.134607620256E+00  9.244222911700E+00  9.355153586640E+00  9.467415429680E+00
  9.581024414836E+00  9.695996707814E+00  9.812348668308E+00  9.930096852327E+00
  1.004925801456E+01  1.016984911073E+01  1.029188730006E+01  1.041538994766E+01
  1.054037462703E+01  1.066685912256E+01  1.079486143203E+01  1.092439976921E+01
  1.105549256644E+01  1.118815847724E+01  1.132241637897E+01  1.145828537551E+01
  1.159578480002E+01  1.173493421762E+01  1.187575342823E+01  1.201826246937E+01
  1.216248161900E+01  1.230843139843E+01  1.245613257521E+01  1.260560616611E+01
  1.275687344011E+01  1.290995592139E+01  1.306487539244E+01  1.322165389715E+01
  1.338031374392E+01  1.354087750885E+01  1.370336803895E+01  1.386780845542E+01
  1.403422215689E+01  1.420263282277E+01  1.437306441664E+01  1.454554118964E+01
  1.472008768392E+01  1.489672873612E+01  1.507548948096E+01  1.525639535473E+01
  1.543947209899E+01  1.562474576417E+01  1.581224271334E+01  1.600198962590E+01
  1.619401350141E+01  1.638834166343E+01  1.658500176339E+01  1.678402178455E+01
  1.698543004597E+01  1.718925520652E+01  1.739552626900E+01  1.760427258423E+01
  1.781552385524E+01  1.802931014150E+01  1.824566186320E+01  1.846460980556E+01
  1.868618512322E+01  1.891041934470E+01  1.913734437684E+01  1.936699250936E+01
  1.959939641947E+01  1.983458917651E+01  2.007260424662E+01  2.031347549758E+01
  2.055723720355E+01  2.080392405000E+01  2.105357113860E+01  2.130621399226E+01
  2.156188856017E+01  2.182063122289E+01  2.208247879756E+01  2.234746854313E+01
  2.261563816565E+01  2.288702582364E+01  2.316167013352E+01  2.343961017513E+01
  2.372088549723E+01  2.400553612319E+01  2.429360255667E+01  2.458512578735E+01
  2.488014729680E+01  2.517870906436E+01  2.548085357313E+01  2.578662381601E+01
  2.609606330180E+01  2.640921606143E+01  2.672612665416E+01  2.704684017401E+01
  2.737140225610E+01  2.769985908317E+01  2.803225739217E+01  2.836864448088E+01
  2.870906821465E+01  2.905357703323E+01  2.940221995762E+01  2.975504659712E+01
  3.011210715628E+01  3.047345244216E+01  3.083913387146E+01  3.120920347792E+01
  3.158371391965E+01  3.196271848669E+01  3.234627110853E+01  3.273442636183E+01
  3.312723947817E+01  3.352476635191E+01  3.392706354814E+01  3.433418831071E+01
  3.474619857044E+01  3.516315295329E+01  3.558511078873E+01  3.601213211819E+01
  3.644427770361E+01  3.688160903605E+01  3.732418834449E+01  3.777207860462E+01
  3.822534354788E+01  3.868404767045E+01  3.914825624250E+01  3.961803531741E+01
  4.009345174121E+01  4.057457316211E+01  4.106146804005E+01  4.155420565653E+01
  4.205285612441E+01  4.255749039791E+01  4.306818028268E+01  4.358499844607E+01
  4.410801842743E+01
</grid-data>
</grid>
<valence-charge total-charge="20" is-unscreening-charge="yes"
 rescaled-to-z-pseudo="no">
<radfunc>
<data npts="457">
  7.154174929517E+00  7.156030616325E+00  7.161577821512E+00  7.170832331189E+00
  7.183699003697E+00  7.200616844740E+00  7.222177644953E+00  7.246865554649E+00
  7.277525022094E+00  7.310670493719E+00  7.348027436200E+00  7.388627331371E+00
  7.437688124443E+00  7.488919210715E+00  7.540089462217E+00  7.599019753881E+00
  7.666866059259E+00  7.731163147483E+00  7.803428356170E+00  7.884622923815E+00
  7.975816726954E+00  8.056765755576E+00  8.145540258760E+00  8.242864336520E+00
  8.349521914455E+00  8.466360020512E+00  8.594291807994E+00  8.698108904109E+00
  8.809157356499E+00  8.927900190058E+00  9.054823289983E+00  9.190435301110E+00
  9.335267241350E+00  9.489871766105E+00  9.654822010078E+00  9.830709920965E+00
  1.001814398612E+01  1.021774623819E+01  1.035788621617E+01  1.050390355510E+01
  1.065598708352E+01  1.081432497225E+01  1.097910373364E+01  1.115050708314E+01
  1.132871464918E+01  1.151390051712E+01  1.170623159170E+01  1.190586576167E+01
  1.211294984945E+01  1.232761732800E+01  1.254998578632E+01  1.278015412479E+01
  1.301819946112E+01  1.326417372795E+01  1.351809994353E+01  1.377996813771E+01
  1.404973091716E+01  1.432729865573E+01  1.461253429880E+01  1.490524777460E+01
  1.520519001029E+01  1.551204655727E+01  1.582543083792E+01  1.614487703585E+01
  1.646983266341E+01  1.679965085422E+01  1.713358244499E+01  1.730182670106E+01
  1.747076793006E+01  1.764028012887E+01  1.781022939441E+01  1.798047367979E+01
  1.815086255610E+01  1.832123698125E+01  1.849142907755E+01  1.866126191996E+01
  1.883054933691E+01  1.899909572578E+01  1.916669588548E+01  1.933313486839E+01
  1.949818785439E+01  1.966162004970E+01  1.982318661345E+01  1.998263261510E+01
  2.013969302582E+01  2.029409274748E+01  2.044554668240E+01  2.059375984790E+01
  2.073842753900E+01  2.087923554358E+01  2.101586041343E+01  2.114796979556E+01
  2.127522282754E+01  2.139727060083E+01  2.151375669608E+01  2.162431779418E+01
  2.172858436655E+01  2.182618144831E+01  2.191672949731E+01  2.199984534186E+01
  2.207514321961E+01  2.214223590939E+01  2.220073595741E+01  2.225025699850E+01
  2.229041517218E+01  2.232083063289E+01  2.234112915230E+01  2.235094381104E+01
  2.234991677578E+01  2.233770115660E+01  2.231396293814E+01  2.227838297689E+01
  2.223065905549E+01  2.217050798335E+01  2.209766773171E+01  2.201189958959E+01
  2.191299032570E+01  2.180075433994E+01  2.167503578682E+01  2.153571065201E+01
  2.138268876172E+01  2.121591570433E+01  2.103537464224E+01  2.084108799205E+01
  2.063311895045E+01  2.041157284366E+01  2.017659827836E+01  1.992838807304E+01
  1.966717994958E+01  1.939325696658E+01  1.910694767781E+01  1.880862600105E+01
  1.849871078578E+01  1.817766507052E+01  1.784599502419E+01  1.750424856906E+01
  1.715301368664E+01  1.679291641137E+01  1.642461852073E+01  1.604881493413E+01
  1.566623083627E+01  1.527761854383E+01  1.488375413754E+01  1.448543388389E+01
  1.408347047284E+01  1.367868909947E+01  1.327192341862E+01  1.286401140161E+01
  1.245579112468E+01  1.204809651776E+01  1.164175310163E+01  1.123757374034E+01
  1.083635443441E+01  1.043887017900E+01  1.004587091040E+01  9.658077562834E+00
  9.276178257617E+00  8.900824646292E+00  8.532628430295E+00  8.172158080626E+00
  7.819935782802E+00  7.476434634384E+00  7.142076124729E+00  6.817227928953E+00
  6.502202050157E+00  6.197253345492E+00  5.902578472297E+00  5.618315289922E+00
  5.344542750913E+00  5.081281311508E+00  4.828493886014E+00  4.586088451805E+00
  4.353925700401E+00  4.131829700316E+00  3.919592649096E+00  3.716977117806E+00
  3.523720198656E+00  3.339537064260E+00  3.164124649604E+00  2.997166114710E+00
  2.838338201106E+00  2.687319648983E+00  2.543792483647E+00  2.407443278418E+00
  2.277964152414E+00  2.155053656718E+00  2.038417519644E+00  1.927769269041E+00
  1.822830738687E+00  1.723332468911E+00  1.629014010382E+00  1.539624139962E+00
  1.454920997185E+00  1.374672149613E+00  1.298654594920E+00  1.226654707168E+00
  1.158468134295E+00  1.093899653408E+00  1.032762990011E+00  9.748806068566E-01
  9.200834676627E-01  8.682107804895E-01  8.191097251403E-01  7.726351685375E-01
  7.286493716232E-01  6.870216909463E-01  6.476282777424E-01  6.103517769640E-01
  5.750810284024E-01  5.417107717425E-01  5.101413571148E-01  4.802784624582E-01
  4.520328187696E-01  4.253199441098E-01  4.000598870424E-01  3.761769800111E-01
  3.535996030093E-01  3.322599577609E-01  3.120938525131E-01  2.930404974397E-01
  2.750423105653E-01  2.580447340456E-01  2.419960605773E-01  2.268472696585E-01
  2.125518733800E-01  1.990657713939E-01  1.863471146844E-01  1.743561777443E-01
  1.630552387534E-01  1.524084673467E-01  1.423818195620E-01  1.329429395563E-01
  1.240610676903E-01  1.157069545871E-01  1.078527807844E-01  1.004720816113E-01
  9.353967693780E-02  8.703160545830E-02  8.092506318905E-02  7.519834587671E-02
  6.983079502502E-02  6.480274728214E-02  6.009548692378E-02  5.569120120180E-02
  5.157293833732E-02  4.772456795348E-02  4.413074375855E-02  4.077686830397E-02
  3.764905965563E-02  3.473411982961E-02  3.201950485558E-02  2.949329634255E-02
  2.714417443222E-02  2.496139203531E-02  2.293475025520E-02  2.105457491215E-02
  1.931169408898E-02  1.769741662685E-02  1.620351150599E-02  1.482218805305E-02
  1.354607692207E-02  1.236821180135E-02  1.128201180349E-02  1.028126449991E-02
  9.360109565450E-03  8.513023002022E-03  7.734801913652E-03  7.020549808157E-03
  6.365662403382E-03  5.765813918278E-03  5.216943831218E-03  4.715244089863E-03
  4.257146758521E-03  3.839312090445E-03  3.458617013762E-03  3.112144020853E-03
  2.797170451930E-03  2.511158164358E-03  2.251743579938E-03  2.016728102885E-03
  1.804068901680E-03  1.611870048263E-03  1.438374008296E-03  1.281953476336E-03
  1.141103549856E-03  1.014434236027E-03  9.006632851648E-04  7.986093445986E-04
  7.071854266276E-04  6.253926840405E-04  5.523144864882E-04  4.871107907932E-04
  4.290127980644E-04  3.773178902607E-04  3.313848386316E-04  2.906292762478E-04
  2.545194266354E-04  2.225720803425E-04  1.943488110986E-04  1.694524230864E-04
  1.475236207246E-04  1.282378922688E-04  1.113025984735E-04  9.645425752506E-05
  8.345601744815E-05  7.209530721582E-05  6.218165784772E-05  5.354468486434E-05
  4.603222357766E-05  3.950860883689E-05  3.385309101163E-05  2.895838018160E-05
  2.472931071004E-05  2.108161860522E-05  1.794082431848E-05  1.524121388579E-05
  1.292491159089E-05  1.094103760873E-05  9.244944376622E-06  7.797525734117E-06
  6.564593170081E-06  5.516313813631E-06  4.626705103349E-06  3.873181364423E-06
  3.236147814438E-06  2.698637804107E-06  2.245989377833E-06  1.865557509592E-06
  1.546458631139E-06  1.279344321212E-06  1.056201265524E-06  8.701748273581E-07
  7.154137871712E-07  5.869340164724E-07  4.804990462910E-07  3.925156737101E-07
  3.199429213626E-07  2.602128245938E-07  2.111616694692E-07  1.709704422573E-07
  1.381133778249E-07  1.113136109750E-07  8.950504159389E-08  7.179962204387E-08
  5.745936405394E-08  4.587244293909E-08  3.653284985071E-08  2.902310844664E-08
  2.299963139069E-08  1.818034495369E-08  1.433425718412E-08  1.127268711988E-08
  8.841909776515E-09  6.917004602942E-09  5.396724147929E-09  4.199225213042E-09
  3.258527134547E-09  2.521581369780E-09  1.945853567441E-09  1.497334057102E-09
  1.148905457488E-09  8.790071096514E-10  6.705455017740E-10  5.100079581613E-10
  3.867437877944E-10  2.923829811128E-10  2.203675444125E-10  1.655747906984E-10
  1.240154712618E-10  9.259262801451E-11  6.890955536019E-11  5.111735427529E-11
  3.779430303824E-11  2.785071298108E-11  2.045413057326E-11  1.497072946630E-11
  1.091954135584E-11  7.912809154546E-12  5.732118501328E-12  4.137527431009E-12
  2.975701696573E-12  2.132268865065E-12  1.522227807231E-12  1.082637969554E-12
  7.670670646856E-13  5.413899769043E-13  3.806220521890E-13  2.665412058796E-13
  1.859092545618E-13  1.291466687062E-13  8.934906338605E-14  6.156022345249E-14
  4.223692424366E-14  2.885655996096E-14  1.963066432915E-14  1.329662212976E-14
  8.966872503933E-15  6.020203499011E-15  4.023729247741E-15  2.677135406680E-15
  1.773014385994E-15  1.168774019159E-15  7.668332742867E-16  5.007245767362E-16
  3.253865326657E-16  2.104155320185E-16  1.353967099380E-16  8.668915263688E-17
  5.522321093495E-17  3.499873985946E-17  2.206633980932E-17  1.383975173177E-17
  8.634139001665E-18  5.357655886501E-18  3.306493012023E-18  2.029406495811E-18
  1.238655156669E-18  7.517659597655E-19  4.536661348133E-19  2.721960150112E-19
  1.623636235652E-19  9.627793960060E-20  5.674989456044E-20  3.324851955124E-20
  1.936051599414E-20  1.120383989770E-20  6.443024700680E-21  3.681737298593E-21
  2.090367329576E-21  1.179140024572E-21  6.607654276371E-22  0.000000000000E+00
  0.000000000000E+00  0.000000000000E+00  0.000000000000E+00  0.000000000000E+00
  0.000000000000E+00  0.000000000000E+00  0.000000000000E+00  0.000000000000E+00
  0.000000000000E+00  0.000000000000E+00  0.000000000000E+00  0.000000000000E+00
  0.000000000000E+00  0.000000000000E+00  0.000000000000E+00  0.000000000000E+00
  0.000000000000E+00  0.000000000000E+00  0.000000000000E+00  0.000000000000E+00
  0.000000000000E+00  0.000000000000E+00  0.000000000000E+00  0.000000000000E+00
  0.000000000000E+00
</data>
</radfunc>
</valence-charge>
<pseudocore-charge matching-radius="0.764087853819"
 number-of-continuous-derivatives="4">
<annotation model-charge-form="Teter function with specified parameters" />
<radfunc>
<data npts="290">
  1.155612474064E+02  1.155527950214E+02  1.155275284401E+02  1.154853765649E+02
  1.154267740317E+02  1.153497232217E+02  1.152515316310E+02  1.151391056561E+02
  1.149994961113E+02  1.148485789033E+02  1.146785013003E+02  1.144936770165E+02
  1.142703597578E+02  1.140371904868E+02  1.138043243186E+02  1.135361746331E+02
  1.132274933655E+02  1.129349960168E+02  1.126062893249E+02  1.122370114878E+02
  1.118223077101E+02  1.114542321611E+02  1.110506116370E+02  1.106081575308E+02
  1.101233071766E+02  1.095922074814E+02  1.090106990745E+02  1.085388041932E+02
  1.080340278085E+02  1.074942481168E+02  1.069172324405E+02  1.063006356164E+02
  1.056419991568E+02  1.049387513489E+02  1.041882084810E+02  1.033875774097E+02
  1.025339597071E+02  1.016243576578E+02  1.009853319624E+02  1.003191175542E+02
  9.962476455731E+01  9.890131081067E+01  9.814778413417E+01  9.736320491550E+01
  9.654658904259E+01  9.569695120883E+01  9.481330861867E+01  9.389468512185E+01
  9.294011580493E+01  9.194865206868E+01  9.091936721980E+01  8.985136260469E+01
  8.874377431158E+01  8.759578046587E+01  8.640660914079E+01  8.517554690239E+01
  8.390194800362E+01  8.258524423722E+01  8.122495545080E+01  7.982070071988E+01
  7.837221016586E+01  7.687933739531E+01  7.534207252476E+01  7.376055574141E+01
  7.213509133422E+01  7.046616211203E+01  6.875444410531E+01  6.788280705745E+01
  6.700082142657E+01  6.610863267958E+01  6.520640113969E+01  6.429430243888E+01
  6.337252796302E+01  6.244128528769E+01  6.150079860251E+01  6.055130912224E+01
  5.959307548197E+01  5.862637411438E+01  5.765149960635E+01  5.666876503243E+01
  5.567850226230E+01  5.468106223948E+01  5.367681522820E+01  5.266615102539E+01
  5.164947913451E+01  5.062722889804E+01  4.959984958504E+01  4.856781043049E+01
  4.753160062270E+01  4.649172923522E+01  4.544872509965E+01  4.440313661557E+01
  4.335553149394E+01  4.230649643033E+01  4.125663670427E+01  4.020657570113E+01
  3.915695435322E+01  3.810843049649E+01  3.706167813980E+01  3.601738664371E+01
  3.497625980601E+01  3.393901485141E+01  3.290638132326E+01  3.187909987550E+01
  3.085792096322E+01  2.984360343106E+01  2.883691299880E+01  2.783862064435E+01
  2.684950088464E+01  2.587032995598E+01  2.490188389573E+01  2.394493652824E+01
  2.300025735861E+01  2.206860937884E+01  2.115074679175E+01  2.024741265899E+01
  1.935933648067E+01  1.848723171482E+01  1.763179324623E+01  1.679369481524E+01
  1.597358641797E+01  1.517209169086E+01  1.438980529315E+01  1.362729030230E+01
  1.288507563807E+01  1.216365353226E+01  1.146347706171E+01  1.078495776322E+01
  1.012846334973E+01  9.494315547529E+00  8.882788075005E+00  8.294104783527E+00
  7.728437981292E+00  7.185906960880E+00  6.666576750951E+00  6.170457112003E+00
  5.697501795350E+00  5.247608083379E+00  4.820616627860E+00  4.416311601405E+00
  4.034421175276E+00  3.674618334462E+00  3.336522038411E+00  3.019698732946E+00
  2.723664215753E+00  2.447885854384E+00  2.191785152085E+00  1.954740652832E+00
  1.736091172900E+00  1.535139342081E+00  1.351155433349E+00  1.183381455475E+00
  1.031035478784E+00  8.933161600995E-01  7.694074289532E-01  6.584832934161E-01
  5.597127206152E-01  4.722645441026E-01  3.953123479273E-01  3.280392755616E-01
  2.696427108488E-01  2.193387779530E-01  1.763666079508E-01  1.399923212834E-01
  1.095126778080E-01  8.425834968072E-02  6.359677676160E-02  4.693456963619E-02
  3.371943164587E-02  2.344157843718E-02  1.563464137307E-02  9.876049567666E-03
  5.786894151104E-03  3.031287461680E-03  1.315238992497E-03  3.850788678652E-04
  2.546815495831E-05  5.704318721120E-05  3.337480470520E-04  7.399151951804E-04
  1.187158728398E-03  1.611147711807E-03  1.968328314485E-03  2.232662976489E-03
  2.392452498680E-03  2.447302785155E-03  2.405292055875E-03  2.280386827167E-03
  2.090146040282E-03  1.853742677995E-03  1.590321378697E-03  1.317699316830E-03
  1.051406382536E-03  8.040498943751E-04  5.849791483836E-04  4.002164538540E-04
  2.526142968045E-04  1.421932068838E-04  6.661199867568E-05  2.172142900956E-05
  2.153959743369E-06  1.906122708347E-06  1.487571312732E-05  3.532334178022E-05
  5.823631120263E-05  7.958183216284E-05  9.644570672358E-05  1.070612099696E-04
  1.107404722216E-04  1.077267356510E-04  9.899007795103E-05  8.599134118579E-05
  7.043901287615E-05  5.406178149808E-05  3.841569437187E-05  2.473969018706E-05
  1.386727987730E-05  6.195893624870E-06  1.709497574138E-06  4.506732646494E-08
  5.898438796427E-07  2.594302382676E-06  5.285565072953E-06  7.967520149838E-06
  1.009690942427E-05  1.132869661532E-05  1.152858678307E-05  1.075504622860E-05
  9.217004468096E-06  7.216134857538E-06  5.083896783442E-06  3.123271907668E-06
  1.563451379745E-06  5.329467527052E-07  5.317998493932E-08  0.000000000000E+00
  0.000000000000E+00  0.000000000000E+00  0.000000000000E+00  0.000000000000E+00
  0.000000000000E+00  0.000000000000E+00  0.000000000000E+00  0.000000000000E+00
  0.000000000000E+00  0.000000000000E+00  0.000000000000E+00  0.000000000000E+00
  0.000000000000E+00  0.000000000000E+00  0.000000000000E+00  0.000000000000E+00
  0.000000000000E+00  0.000000000000E+00  0.000000000000E+00  0.000000000000E+00
  0.000000000000E+00  0.000000000000E+00  0.000000000000E+00  0.000000000000E+00
  0.000000000000E+00  0.000000000000E+00  0.000000000000E+00  0.000000000000E+00
  0.000000000000E+00  0.000000000000E+00  0.000000000000E+00  0.000000000000E+00
  0.000000000000E+00  0.000000000000E+00  0.000000000000E+00  0.000000000000E+00
  0.000000000000E+00  0.000000000000E+00  0.000000000000E+00  0.000000000000E+00
  0.000000000000E+00  0.000000000000E+00  0.000000000000E+00  0.000000000000E+00
  0.000000000000E+00  0.000000000000E+00  0.000000000000E+00  0.000000000000E+00
  0.000000000000E+00  0.000000000000E+00  0.000000000000E+00  0.000000000000E+00
  0.000000000000E+00  0.000000000000E+00
</data>
</radfunc>
</pseudocore-charge>
<semilocal-potentials set="scalar_relativistic">
<slps n="5" l="s" rc="1.60079261207" eref="-4.35695862565">
<radfunc>
<data npts="290">
 -1.977815116180E+01 -1.977857418732E+01 -1.977983856148E+01 -1.978194738299E+01
 -1.978487814893E+01 -1.978872964051E+01 -1.979363477244E+01 -1.979924669723E+01
 -1.980620917003E+01 -1.981372763550E+01 -1.982219076262E+01 -1.983137581510E+01
 -1.984245731176E+01 -1.985400839994E+01 -1.986552479714E+01 -1.987876176949E+01
 -1.989396722596E+01 -1.990834352937E+01 -1.992446240704E+01 -1.994252388340E+01
 -1.996274793721E+01 -1.998064551553E+01 -2.000021460185E+01 -2.002159807315E+01
 -2.004494823924E+01 -2.007042684964E+01 -2.009820493098E+01 -2.012065543882E+01
 -2.014457943293E+01 -2.017005830975E+01 -2.019717558091E+01 -2.022601650900E+01
 -2.025666765382E+01 -2.028921631641E+01 -2.032374986711E+01 -2.036035494259E+01
 -2.039911649565E+01 -2.044011668042E+01 -2.046873258065E+01 -2.049840004984E+01
 -2.052913957980E+01 -2.056097009740E+01 -2.059390870056E+01 -2.062797037107E+01
 -2.066316766309E+01 -2.069951036613E+01 -2.073700514137E+01 -2.077565513018E+01
 -2.081545953395E+01 -2.085641316404E+01 -2.089850596130E+01 -2.094172248423E+01
 -2.098604136539E+01 -2.103143473560E+01 -2.107786761581E+01 -2.112529727676E+01
 -2.117367256677E+01 -2.122293320825E+01 -2.127300906415E+01 -2.132381937545E+01
 -2.137527197177E+01 -2.142726245711E+01 -2.147967337362E+01 -2.153237334658E+01
 -2.158521621445E+01 -2.163804014838E+01 -2.169066676630E+01 -2.171684559304E+01
 -2.174290024732E+01 -2.176880338251E+01 -2.179452645292E+01 -2.182003968718E+01
 -2.184531206213E+01 -2.187031127712E+01 -2.189500372883E+01 -2.191935448684E+01
 -2.194332726979E+01 -2.196688442244E+01 -2.198998689350E+01 -2.201259421457E+01
 -2.203466448005E+01 -2.205615432825E+01 -2.207701892383E+01 -2.209721194151E+01
 -2.211668555142E+01 -2.213539040589E+01 -2.215327562812E+01 -2.217028880262E+01
 -2.218637596758E+01 -2.220148160951E+01 -2.221554865988E+01 -2.222851849440E+01
 -2.224033093458E+01 -2.225092425213E+01 -2.226023517610E+01 -2.226819890297E+01
 -2.227474910994E+01 -2.227981797144E+01 -2.228333617915E+01 -2.228523296558E+01
 -2.228543613155E+01 -2.228387207755E+01 -2.228046583933E+01 -2.227514112782E+01
 -2.226782037360E+01 -2.225842477611E+01 -2.224687435784E+01 -2.223308802364E+01
 -2.221698362547E+01 -2.219847803271E+01 -2.217748720838E+01 -2.215392629142E+01
 -2.212770968532E+01 -2.209875115340E+01 -2.206696392104E+01 -2.203226078505E+01
 -2.199455423067E+01 -2.195375655636E+01 -2.190978000691E+01 -2.186253691515E+01
 -2.181193985267E+01 -2.175790179007E+01 -2.170033626712E+01 -2.163915757343E+01
 -2.157428094009E+01 -2.150562274285E+01 -2.143310071755E+01 -2.135663418839E+01
 -2.127614430973E+01 -2.119155432219E+01 -2.110278982382E+01 -2.100977905720E+01
 -2.091245321330E+01 -2.081074675307E+01 -2.070459774768E+01 -2.059394823845E+01
 -2.047874461763E+01 -2.035893803094E+01 -2.023448480341E+01 -2.010534688946E+01
 -1.997149234897E+01 -1.983289585066E+01 -1.968953920467E+01 -1.954141192635E+01
 -1.938851183357E+01 -1.923084568048E+01 -1.906842983108E+01 -1.890129097684E+01
 -1.872946690371E+01 -1.855300731488E+01 -1.837197471775E+01 -1.818644538525E+01