<?xml version="1.0" encoding="UTF-8" ?>
<psml version="1.1" energy_unit="hartree" length_unit="bohr"
 uuid="66fb3190-23d3-11e8-7302-1c6bb7bede94"
 xmlns="http://esl.cecam.org/PSML/ns/1.1">
<provenance creator="ONCVPSP-3.3.0+psml-3.3.0-73 (scalar-relativistic)"
 date="2018-03-09">
<annotation action="semilocal-pseudopotential-generation"
 action-cont="projectors-generation" />
<input-file name="oncvpsp-input">
<![CDATA[# atsym z nc nv iexc psfile
I 53 9 2 -001012 upf
# n l f
1 0 2.0
2 0 2.0
2 1 6.0
3 0 2.0
3 1 6.0
3 2 10.0
4 0 2.0
4 1 6.0
4 2 10.0
5 0 2.0
5 1 5.0
# lmax
2
# l rc ep ncon nbas qcut
0 2.0 0.0 4 7 3.7
1 2.15 0.0 4 7 4.0
2 2.25 0.1 4 8 4.8
# lloc lpopt rc5 dvloc0
4 5 2.0 0.0
# l nproj debl
0 2 2.2
1 2 2.5
2 2 3.0
# icmod fcfact rcfact
3 4.0 1.34
# epsh1 epsh2 depsh
-12.0 12.0 0.02
# rlmax drl
6.0 0.01
 0
]]>
</input-file>
</provenance>
<pseudo-atom-spec atomic-label="I" atomic-number="53" z-pseudo="7"
 flavor="Hamann&apos;s oncvpsp" relativity="scalar" spin-dft="no"
 core-corrections="yes">
<annotation pseudo-energy="-11.6515292401" />
<exchange-correlation>
<annotation oncvpsp-xc-code="-1012" oncvpsp-xc-type="libxc-interface" />
<libxc-info number-of-functionals="2">
<functional name="Slater exchange (LDA)" type="exchange" id="1" />
<functional name="Perdew &amp; Wang (LDA)" type="correlation" id="12" />
</libxc-info>
</exchange-correlation>
<valence-configuration total-valence-charge="7">
<shell n="5" l="s" occupation="2" />
<shell n="5" l="p" occupation="5" />
</valence-configuration>
</pseudo-atom-spec>
<grid npts="458">
<annotation type="sampled from oncvpsp log grid"
 recipe="r(i:1..N) = r1*exp(a*(i-1)) + r=0; resampled"
 recipe-cont="r1: scale; a: step" scale="0.943396226415E-05"
 step="0.119285708653E-01" delta="0.500000000000E-02" rmax="44.3807093700" />
<grid-data>
  0.000000000000E+00  5.007762362137E-03  1.012264367117E-02  1.518557966799E-02
  2.021918633661E-02  2.536257896747E-02  3.069598770929E-02  3.584497442415E-02
  4.087087281817E-02  4.604887635970E-02  5.126767823703E-02  5.640112283188E-02
  6.204858043287E-02  6.745209415252E-02  7.245669368045E-02  7.783260883245E-02
  8.360738932391E-02  8.874568074888E-02  9.419975812269E-02  9.998902882364E-02
  1.061340929567E-01  1.113209650746E-01  1.167613244709E-01  1.224675593053E-01
  1.284526631584E-01  1.347302646194E-01  1.413146583191E-01  1.464632781427E-01
  1.517994813805E-01  1.573301023957E-01  1.630622245526E-01  1.690031892890E-01
  1.751606055187E-01  1.815423593765E-01  1.881566243185E-01  1.950118715903E-01
  2.021168810766E-01  2.094807525460E-01  2.145384558354E-01  2.197182723131E-01
  2.250231502799E-01  2.304561092202E-01  2.360202415212E-01  2.417187142325E-01
  2.475547708689E-01  2.535317332568E-01  2.596530034246E-01  2.659220655392E-01
  2.723424878896E-01  2.789179249172E-01  2.856521192964E-01  2.925489040647E-01
  2.996122048045E-01  3.068460418773E-01  3.142545327123E-01  3.218418941502E-01
  3.296124448425E-01  3.375706077108E-01  3.457209124634E-01  3.540679981739E-01
  3.626166159218E-01  3.713716314966E-01  3.803380281675E-01  3.895209095195E-01
  3.989255023590E-01  4.085571596879E-01  4.184213637514E-01  4.234424201164E-01
  4.285237291578E-01  4.336660139077E-01  4.388700060746E-01  4.441364461475E-01
  4.494660835013E-01  4.548596765033E-01  4.603179926214E-01  4.658418085328E-01
  4.714319102352E-01  4.770890931580E-01  4.828141622759E-01  4.886079322232E-01
  4.944712274099E-01  5.004048821388E-01  5.064097407245E-01  5.124866576132E-01
  5.186364975046E-01  5.248601354746E-01  5.311584571003E-01  5.375323585855E-01
  5.439827468885E-01  5.505105398512E-01  5.571166663294E-01  5.638020663254E-01
  5.705676911213E-01  5.774145034147E-01  5.843434774557E-01  5.913555991852E-01
  5.984518663754E-01  6.056332887719E-01  6.129008882372E-01  6.202556988960E-01
  6.276987672828E-01  6.352311524901E-01  6.428539263200E-01  6.505681734359E-01
  6.583749915171E-01  6.662754914153E-01  6.742707973123E-01  6.823620468800E-01
  6.905503914426E-01  6.988369961399E-01  7.072230400936E-01  7.157097165747E-01
  7.242982331736E-01  7.329898119717E-01  7.417856897153E-01  7.506871179919E-01
  7.596953634078E-01  7.688117077687E-01  7.780374482620E-01  7.873738976411E-01
  7.968223844128E-01  8.063842530257E-01  8.160608640621E-01  8.258535944308E-01
  8.357638375640E-01  8.457930036147E-01  8.559425196581E-01  8.662138298940E-01
  8.766083958527E-01  8.871276966030E-01  8.977732289622E-01  9.085465077098E-01
  9.194490658023E-01  9.304824545919E-01  9.416482440470E-01  9.529480229756E-01
  9.643833992513E-01  9.759560000423E-01  9.876674720428E-01  9.995194817073E-01
  1.011513715488E+00  1.023651880074E+00  1.035935702635E+00  1.048366931066E+00
  1.060947334239E+00  1.073678702250E+00  1.086562846677E+00  1.099601600837E+00
  1.112796820047E+00  1.126150381888E+00  1.139664186470E+00  1.153340156708E+00
  1.167180238588E+00  1.181186401451E+00  1.195360638269E+00  1.209704965928E+00
  1.224221425519E+00  1.238912082625E+00  1.253779027617E+00  1.268824375948E+00
  1.284050268460E+00  1.299458871681E+00  1.315052378141E+00  1.330833006679E+00
  1.346803002759E+00  1.362964638792E+00  1.379320214458E+00  1.395872057031E+00
  1.412622521716E+00  1.429573991976E+00  1.446728879880E+00  1.464089626439E+00
  1.481658701956E+00  1.499438606379E+00  1.517431869656E+00  1.535641052092E+00
  1.554068744717E+00  1.572717569653E+00  1.591590180489E+00  1.610689262655E+00
  1.630017533807E+00  1.649577744213E+00  1.669372677143E+00  1.689405149269E+00
  1.709678011060E+00  1.730194147193E+00  1.750956476959E+00  1.771967954683E+00
  1.793231570139E+00  1.814750348981E+00  1.836527353168E+00  1.858565681406E+00
  1.880868469583E+00  1.903438891218E+00  1.926280157913E+00  1.949395519808E+00
  1.972788266046E+00  1.996461725238E+00  2.020419265941E+00  2.044664297132E+00
  2.069200268698E+00  2.094030671922E+00  2.119159039985E+00  2.144588948465E+00
  2.170324015847E+00  2.196367904037E+00  2.222724318885E+00  2.249397010712E+00
  2.276389774840E+00  2.303706452138E+00  2.331350929564E+00  2.359327140719E+00
  2.387639066408E+00  2.416290735204E+00  2.445286224027E+00  2.474629658715E+00
  2.504325214620E+00  2.534377117195E+00  2.564789642602E+00  2.595567118313E+00
  2.626713923733E+00  2.658234490817E+00  2.690133304707E+00  2.722414904364E+00
  2.755083883216E+00  2.788144889815E+00  2.821602628492E+00  2.855461860034E+00
  2.889727402355E+00  2.924404131183E+00  2.959496980757E+00  2.995010944526E+00
  3.030951075861E+00  3.067322488771E+00  3.104130358636E+00  3.141379922940E+00
  3.179076482015E+00  3.217225399799E+00  3.255832104597E+00  3.294902089852E+00
  3.334440914930E+00  3.374454205909E+00  3.414947656380E+00  3.455927028257E+00
  3.497398152596E+00  3.539366930427E+00  3.581839333592E+00  3.624821405595E+00
  3.668319262462E+00  3.712339093612E+00  3.756887162735E+00  3.801969808688E+00
  3.847593446392E+00  3.893764567749E+00  3.940489742562E+00  3.987775619473E+00
  4.035628926907E+00  4.084056474029E+00  4.133065151718E+00  4.182661933538E+00
  4.232853876741E+00  4.283648123262E+00  4.335051900741E+00  4.387072523550E+00
  4.439717393832E+00  4.492994002558E+00  4.546909930589E+00  4.601472849756E+00
  4.656690523953E+00  4.712570810241E+00  4.769121659963E+00  4.826351119883E+00
  4.884267333322E+00  4.942878541322E+00  5.002193083817E+00  5.062219400823E+00
  5.122966033633E+00  5.184441626037E+00  5.246654925549E+00  5.309614784656E+00
  5.373330162072E+00  5.437810124016E+00  5.503063845505E+00  5.569100611651E+00
  5.635929818990E+00  5.703560976818E+00  5.772003708540E+00  5.841267753043E+00
  5.911362966079E+00  5.982299321672E+00  6.054086913532E+00  6.126735956495E+00
  6.200256787972E+00  6.274659869428E+00  6.349955787861E+00  6.426155257316E+00
  6.503269120403E+00  6.581308349848E+00  6.660284050046E+00  6.740207458647E+00
  6.821089948151E+00  6.902943027529E+00  6.985778343859E+00  7.069607683985E+00
  7.154442976193E+00  7.240296291907E+00  7.327179847410E+00  7.415106005579E+00
  7.504087277646E+00  7.594136324978E+00  7.685265960878E+00  7.777489152408E+00
  7.870819022237E+00  7.965268850504E+00  8.060852076710E+00  8.157582301630E+00
  8.255473289250E+00  8.354538968721E+00  8.454793436346E+00  8.556250957582E+00
  8.658925969073E+00  8.762833080702E+00  8.867987077670E+00  8.974402922602E+00
  9.082095757673E+00  9.191080906765E+00  9.301373877647E+00  9.412990364178E+00
  9.525946248549E+00  9.640257603531E+00  9.755940694773E+00  9.873011983111E+00
  9.991488126908E+00  1.011138598443E+01  1.023272261624E+01  1.035551528764E+01
  1.047978147109E+01  1.060553884874E+01  1.073280531493E+01  1.086159897871E+01
  1.099193816645E+01  1.112384142445E+01  1.125732752154E+01  1.139241545180E+01
  1.152912443722E+01  1.166747393047E+01  1.180748361764E+01  1.194917342105E+01
  1.209256350210E+01  1.223767426413E+01  1.238452635529E+01  1.253314067156E+01
  1.268353835962E+01  1.283574081993E+01  1.298976970977E+01  1.314564694629E+01
  1.330339470964E+01  1.346303544616E+01  1.362459187151E+01  1.378808697397E+01
  1.395354401766E+01  1.412098654587E+01  1.429043838442E+01  1.446192364504E+01
  1.463546672878E+01  1.481109232952E+01  1.498882543748E+01  1.516869134272E+01
  1.535071563884E+01  1.553492422650E+01  1.572134331722E+01  1.590999943703E+01
  1.610091943027E+01  1.629413046344E+01  1.648966002900E+01  1.668753594935E+01
  1.688778638074E+01  1.709043981731E+01  1.729552509511E+01  1.750307139626E+01
  1.771310825301E+01  1.792566555205E+01  1.814077353867E+01  1.835846282113E+01
  1.857876437499E+01  1.880170954749E+01  1.902733006206E+01  1.925565802280E+01
  1.948672591908E+01  1.972056663011E+01  1.995721342967E+01  2.019669999082E+01
  2.043906039071E+01  2.068432911540E+01  2.093254106479E+01  2.118373155756E+01
  2.143793633625E+01  2.169519157229E+01  2.195553387116E+01  2.221900027761E+01
  2.248562828094E+01  2.275545582031E+01  2.302852129016E+01  2.330486354564E+01
  2.358452190819E+01  2.386753617108E+01  2.415394660514E+01  2.444379396440E+01
  2.473711949197E+01  2.503396492588E+01  2.533437250499E+01  2.563838497505E+01
  2.594604559475E+01  2.625739814188E+01  2.657248691959E+01  2.689135676262E+01
  2.721405304377E+01  2.754062168030E+01  2.787110914046E+01  2.820556245015E+01
  2.854402919955E+01  2.888655754994E+01  2.923319624054E+01  2.958399459543E+01
  2.993900253057E+01  3.029827056094E+01  3.066184980767E+01  3.102979200536E+01
  3.140214950943E+01  3.177897530354E+01  3.216032300718E+01  3.254624688327E+01
  3.293680184587E+01  3.333204346802E+01  3.373202798964E+01  3.413681232551E+01
  3.454645407342E+01  3.496101152230E+01  3.538054366057E+01  3.580511018449E+01
  3.623477150671E+01  3.666958876479E+01  3.710962382997E+01  3.755493931593E+01
  3.800559858772E+01  3.846166577077E+01  3.892320576002E+01  3.939028422914E+01
  3.986296763989E+01  4.034132325157E+01  4.082541913059E+01  4.131532416015E+01
  4.181110805007E+01  4.231284134668E+01  4.282059544284E+01  4.333444258815E+01
  4.385445589921E+01  4.438070937000E+01
</grid-data>
</grid>
<valence-charge total-charge="7" is-unscreening-charge="yes"
 rescaled-to-z-pseudo="no">
<radfunc>
<data npts="458">
  1.286866328283E-02  1.288209411987E-02  1.292355410572E-02  1.299223932910E-02
  1.308785335480E-02  1.321378475356E-02  1.337462723994E-02  1.355928034731E-02
  1.376750853469E-02  1.401114576258E-02  1.428681335478E-02  1.458770439112E-02
  1.495310078769E-02  1.533676935226E-02  1.572213790599E-02  1.616862474453E-02
  1.668622338783E-02  1.718027303580E-02  1.773966140413E-02  1.837338332199E-02
  1.909175660279E-02  1.973531213306E-02  2.044747594651E-02  2.123595272055E-02
  2.210938071131E-02  2.307745503092E-02  2.415106818965E-02  2.503285106144E-02
  2.598658586362E-02  2.701853483212E-02  2.813554848356E-02  2.934512413626E-02
  3.065547015447E-02  3.207557636345E-02  3.361529108222E-02  3.528540520950E-02
  3.709774377122E-02  3.906526529266E-02  4.047011666036E-02  4.195475849022E-02
  4.352401206697E-02  4.518299960400E-02  4.693716186749E-02  4.879227649928E-02
  5.075447700580E-02  5.283027236754E-02  5.502656720920E-02  5.735068245433E-02
  5.981037636962E-02  6.241386588375E-02  6.516984804266E-02  6.808752143835E-02
  7.117660742061E-02  7.444737087237E-02  7.791064029715E-02  8.157782693462E-02
  8.546094258533E-02  8.957261579047E-02  9.392610597666E-02  9.853531514086E-02
  1.034147966170E-01  1.085797604351E-01  1.140460747578E-01  1.198302628586E-01
  1.259494950938E-01  1.324215753185E-01  1.392649212086E-01  1.428317358178E-01
  1.464985379743E-01  1.502677896590E-01  1.541419849972E-01  1.581236488007E-01
  1.622153349875E-01  1.664196248745E-01  1.707391253452E-01  1.751764668903E-01
  1.797343015230E-01  1.844153005687E-01  1.892221523326E-01  1.941575596471E-01
  1.992242373025E-01  2.044249093659E-01  2.097623063944E-01  2.152391625480E-01
  2.208582126104E-01  2.266221889263E-01  2.325338182647E-01  2.385958186188E-01
  2.448108959549E-01  2.511817409210E-01  2.577110255314E-01  2.644013998385E-01
  2.712554886097E-01  2.782758880227E-01  2.854651623951E-01  2.928258409659E-01
  3.003604147420E-01  3.080713334269E-01  3.159610024442E-01  3.240317800699E-01
  3.322859746830E-01  3.407258421456E-01  3.493535833142E-01  3.581713416885E-01
  3.671812011911E-01  3.763851840730E-01  3.857852489296E-01  3.953832888057E-01
  4.051811293603E-01  4.151805270520E-01  4.253831672951E-01  4.357906625251E-01
  4.464045500980E-01  4.572262899350E-01  4.682572618056E-01  4.794987621270E-01
  4.909520001385E-01  5.026180932868E-01  5.144980616410E-01  5.265928211292E-01
  5.389031753682E-01  5.514298058296E-01  5.641732600649E-01  5.771339376825E-01
  5.903120737467E-01  6.037077192430E-01  6.173207182309E-01  6.311506812828E-01
  6.451969547886E-01  6.594585856903E-01  6.739342811977E-01  6.886223630320E-01
  7.035207157426E-01  7.186267286536E-01  7.339372310115E-01  7.494484199370E-01
  7.651557808248E-01  7.810539998920E-01  7.971368686476E-01  8.133971801473E-01
  8.298266170090E-01  8.464156312958E-01  8.631533165306E-01  8.800272722867E-01
  8.970234620054E-01  9.141260649258E-01  9.313173232716E-01  9.485773861257E-01
  9.658841517360E-01  9.832131103296E-01  1.000537189866E+00  1.017826607530E+00
  1.035048730135E+00  1.052167947006E+00  1.069145559247E+00  1.085939689687E+00
  1.102505218089E+00  1.118793746496E+00  1.134753599779E+00  1.150329866598E+00
  1.165464486009E+00  1.180096384831E+00  1.194161670711E+00  1.207593885353E+00
  1.220324321891E+00  1.232282409527E+00  1.243396167680E+00  1.253592730601E+00
  1.262798942096E+00  1.270942018311E+00  1.277950274770E+00  1.283753911835E+00
  1.288285850655E+00  1.291482609458E+00  1.293285207776E+00  1.293640084010E+00
  1.292500009634E+00  1.289824981479E+00  1.285583071941E+00  1.279751215818E+00
  1.272315911795E+00  1.263273816556E+00  1.252632210101E+00  1.240409312235E+00
  1.226634432344E+00  1.211347937562E+00  1.194601028194E+00  1.176455313802E+00
  1.156982188506E+00  1.136262009832E+00  1.114383091464E+00  1.091440526594E+00
  1.067534864779E+00  1.042770671201E+00  1.017255002682E+00  9.910958395360E-01
  9.644005160411E-01  9.372741948796E-01  9.098184320235E-01  8.821300553507E-01
  8.543009341535E-01  8.264182600602E-01  7.985638270276E-01  7.708129904544E-01
  7.432341630884E-01  7.158886411561E-01  6.888316838964E-01  6.621142984095E-01
  6.357835878902E-01  6.098824829229E-01  5.844499553228E-01  5.595210792016E-01
  5.351271322755E-01  5.112957076626E-01  4.880508368966E-01  4.654131225498E-01
  4.433998791912E-01  4.220252810083E-01  4.013005148334E-01  3.812339372416E-01
  3.618312344879E-01  3.430955841256E-01  3.250278172310E-01  3.076265802373E-01
  2.908884954689E-01  2.748083195445E-01  2.593790989047E-01  2.445923217978E-01
  2.304380661381E-01  2.169051427279E-01  2.039812334083E-01  1.916530237744E-01
  1.799063301689E-01  1.687262206648E-01  1.580971299783E-01  1.480029680737E-01
  1.384272224550E-01  1.293530541088E-01  1.207633871202E-01  1.126409920222E-01
  1.049685629704E-01  9.772878886833E-02  9.090441859338E-02  8.447832049492E-02
  7.843353635798E-02  7.275333003958E-02  6.742123099848E-02  6.242107294907E-02
  5.773702787736E-02  5.335363566205E-02  4.925582954631E-02  4.542895770684E-02
  4.185880116570E-02  3.853158828786E-02  3.543400610372E-02  3.255320869038E-02
  2.987682283989E-02  2.739295123515E-02  2.509017334714E-02  2.295754425838E-02
  2.098459160928E-02  1.916131085486E-02  1.747815901035E-02  1.592604705454E-02
  1.449633115084E-02  1.318080283625E-02  1.197167831956E-02  1.086158702082E-02
  9.843559475213E-03  8.911014715870E-03  8.057747241759E-03  7.277913668507E-03
  6.566019152326E-03  5.916903669609E-03  5.325728227605E-03  4.787961074685E-03
  4.299363972210E-03  3.855978583812E-03  3.454113032002E-03  3.090328666533E-03
  2.761427083691E-03  2.464437430799E-03  2.196604025622E-03  1.955374316063E-03
  1.738387201520E-03  1.543461733550E-03  1.368586210002E-03  1.211907673581E-03
  1.071721822843E-03  9.464633408710E-04  8.346966444020E-04  7.351070538836E-04
  6.464923828500E-04  5.677549431404E-04  4.978939607824E-04  4.359983958557E-04
  3.812401583070E-04  3.328677105125E-04  2.902000463571E-04  2.526210357225E-04
  2.195741225370E-04  1.905573639276E-04  1.651187975259E-04  1.428521236075E-04
  1.233926884719E-04  1.064137553044E-04  9.162304867975E-05  7.875955887617E-05
  6.759059224582E-05  5.790905404379E-05  4.953095032832E-05  4.229309581532E-05
  3.605101488868E-05  3.067702332837E-05  2.605847871584E-05  2.209618790392E-05
  1.870296039110E-05  1.580229691239E-05  1.332720304577E-05  1.121911812988E-05
  9.426950291135E-06  7.906208882056E-06  6.618226134723E-06  5.529460329508E-06
  4.610873267709E-06  3.837375314004E-06  3.187331739045E-06  2.642124541882E-06
  2.185764364696E-06  1.804547527277E-06  1.486753604777E-06  1.222379348713E-06
  1.002905107640E-06  8.210902399048E-07  6.707943265226E-07  5.468212875720E-07
  4.447837807867E-07  3.609855168022E-07  2.923193622187E-07  2.361793199910E-07
  1.903846773529E-07  1.531147953447E-07  1.228531818693E-07  9.833964295786E-08
  7.852944545947E-08  6.255854961968E-08  4.971408286289E-08  3.940932746322E-08
  3.116258554224E-08  2.457936582842E-08  1.933740867013E-08  1.517412969560E-08
  1.187611900443E-08  9.270382556770E-09  7.217056158762E-09  5.603360738831E-09
  4.338601040652E-09  3.350038950500E-09  2.579497912978E-09  1.980576711724E-09
  1.516369702686E-09  1.157606751116E-09  8.811399680857E-10  6.687161627821E-10
  5.059839867731E-10  3.816932805327E-10  2.870513486955E-10  2.152069725511E-10
  1.608380776231E-10  1.198232522808E-10  8.898088356360E-11  6.586264596868E-11
  4.859054063005E-11  3.572871606549E-11  2.618297616510E-11  1.912225506358E-11
  1.391746201813E-11  1.009401486761E-11  7.295123969567E-12  5.253489925409E-12
  3.769563259031E-12  2.694903687817E-12  1.919488340202E-12  1.362066836007E-12
  9.628586126802E-13  6.780441664418E-13  4.756251011432E-13  3.323246614010E-13
  2.312761491768E-13  1.603056358435E-13  1.106611904453E-13  7.607626171903E-14
  5.208212332994E-14  3.550520610518E-14  2.410111369077E-14  1.628926575486E-14
  1.096131259481E-14  7.343402460560E-15  4.897591829253E-15  3.251582875964E-15
  2.148870572057E-15  1.413529246081E-15  9.254523756815E-16  6.030223626557E-16
  3.910370077919E-16  2.523376965477E-16  1.620319500961E-16  1.035255529064E-16
  6.581071839119E-17  4.162184844192E-17  2.618755297917E-17  1.639042204725E-17
  1.020421320669E-17  6.318809340388E-18  3.891608493066E-18  2.383596091332E-18
  1.451833829870E-18  8.793313998543E-19  5.295536129227E-19  3.170726172420E-19
  1.887418253595E-19  1.116880108930E-19  6.569636035579E-20  3.840945563171E-20
  0.000000000000E+00  0.000000000000E+00  0.000000000000E+00  0.000000000000E+00
  0.000000000000E+00  0.000000000000E+00  0.000000000000E+00  0.000000000000E+00
  0.000000000000E+00  0.000000000000E+00  0.000000000000E+00  0.000000000000E+00
  0.000000000000E+00  0.000000000000E+00  0.000000000000E+00  0.000000000000E+00
  0.000000000000E+00  0.000000000000E+00  0.000000000000E+00  0.000000000000E+00
  0.000000000000E+00  0.000000000000E+00  0.000000000000E+00  0.000000000000E+00
  0.000000000000E+00  0.000000000000E+00  0.000000000000E+00  0.000000000000E+00
  0.000000000000E+00  0.000000000000E+00  0.000000000000E+00  0.000000000000E+00
  0.000000000000E+00  0.000000000000E+00
</data>
</radfunc>
</valence-charge>
<pseudocore-charge matching-radius="1.51743186966"
 number-of-continuous-derivatives="4">
<annotation model-charge-form="Teter function with specified parameters" />
<radfunc>
<data npts="291">
  5.210093125606E+00  5.209993283071E+00  5.209685178320E+00  5.209175091137E+00
  5.208465719670E+00  5.207532660027E+00  5.206342973476E+00  5.204979970391E+00
  5.203446513323E+00  5.201657045972E+00  5.199638439617E+00  5.197442461375E+00
  5.194785860120E+00  5.192008226329E+00  5.189230282631E+00  5.186026557955E+00
  5.182332098962E+00  5.178824908012E+00  5.174876047678E+00  5.170430277276E+00
  5.165425549297E+00  5.160972780741E+00  5.156078307718E+00  5.150698771223E+00
  5.144786652050E+00  5.138289891902E+00  5.131151484341E+00  5.125339278683E+00
  5.119102705189E+00  5.112411326401E+00  5.105232605887E+00  5.097531776550E+00
  5.089271702743E+00  5.080412736276E+00  5.070912566438E+00  5.060726064293E+00
  5.049805121594E+00  5.038098484804E+00  5.029830757543E+00  5.021172628886E+00
  5.012106363609E+00  5.002613490872E+00  4.992674780871E+00  4.982270221537E+00
  4.971378995381E+00  4.959979456617E+00  4.948049108691E+00  4.935564582389E+00
  4.922501614670E+00  4.908835028454E+00  4.894538713546E+00  4.879585608962E+00
  4.863947686905E+00  4.847595938700E+00  4.830500362991E+00  4.812629956576E+00
  4.793952708246E+00  4.774435596079E+00  4.754044588625E+00  4.732744650510E+00
  4.710499752995E+00  4.687272890081E+00  4.663026100814E+00  4.637720498472E+00
  4.611316307374E+00  4.583772908119E+00  4.555048892092E+00  4.540231012492E+00
  4.525102126154E+00  4.509656865664E+00  4.493889828463E+00  4.477795579890E+00
  4.461368656457E+00  4.444603569329E+00  4.427494808054E+00  4.410036844524E+00
  4.392224137193E+00  4.374051135555E+00  4.355512284888E+00  4.336602031288E+00
  4.317314826987E+00  4.297645135969E+00  4.277587439905E+00  4.257136244400E+00
  4.236286085580E+00  4.215031537007E+00  4.193367216959E+00  4.171287796061E+00
  4.148788005291E+00  4.125862644368E+00  4.102506590525E+00  4.078714807685E+00
  4.054482356047E+00  4.029804402083E+00  4.004676228969E+00  3.979093247439E+00
  3.953051007084E+00  3.926545208101E+00  3.899571713487E+00  3.872126561694E+00
  3.844205979749E+00  3.815806396828E+00  3.786924458310E+00  3.757557040289E+00
  3.727701264554E+00  3.697354514040E+00  3.666514448733E+00  3.635179022037E+00
  3.603346497589E+00  3.571015466513E+00  3.538184865108E+00  3.504853992944E+00
  3.471022531373E+00  3.436690562406E+00  3.401858587964E+00  3.366527549458E+00
  3.330698847689E+00  3.294374363014E+00  3.257556475772E+00  3.220248086911E+00
  3.182452638782E+00  3.144174136057E+00  3.105417166721E+00  3.066186923075E+00
  3.026489222705E+00  2.986330529345E+00  2.945717973567E+00  2.904659373226E+00
  2.863163253581E+00  2.821238867005E+00  2.778896212205E+00  2.736146052839E+00
  2.692999935450E+00  2.649470206593E+00  2.605570029057E+00  2.561313397058E+00
  2.516715150271E+00  2.471790986600E+00  2.426557473514E+00  2.381032057846E+00
  2.335233073883E+00  2.289179749619E+00  2.242892211002E+00  2.196391484033E+00
  2.149699494540E+00  2.102839065484E+00  2.055833911615E+00  2.008708631322E+00
  1.961488695503E+00  1.914200433302E+00  1.866871014533E+00  1.819528428636E+00
  1.772201460011E+00  1.724919659573E+00  1.677713312384E+00  1.630613401220E+00
  1.583651565955E+00  1.536860058643E+00  1.490271694187E+00  1.443919796526E+00
  1.397838140264E+00  1.352060887686E+00  1.306622521155E+00  1.261557770866E+00
  1.216901538005E+00  1.172688813351E+00  1.128954591429E+00  1.085733780309E+00
  1.043061107240E+00  1.000971020288E+00  9.594975862374E-01  9.186743850276E-01
  8.785344010464E-01  8.391099116622E-01  8.004323734069E-01  7.625323062800E-01
  7.254391766899E-01  6.891812795989E-01  6.537856204868E-01  6.192777977949E-01
  5.856818865595E-01  5.530203239894E-01  5.213137977803E-01  4.905811380001E-01
  4.608392134090E-01  4.321028331104E-01  4.043846544467E-01  3.776950980716E-01
  3.520422711359E-01  3.274318995241E-01  3.038672700646E-01  2.813491836161E-01
  2.598759199003E-01  2.394432149014E-01  2.200442515996E-01  2.016696647300E-01
  1.843075601749E-01  1.679435494979E-01  1.525608000154E-01  1.381401006740E-01
  1.246599438616E-01  1.120966231296E-01  1.004243466370E-01  8.961536595508E-02
  7.964011968791E-02  7.046739117412E-02  6.206447934357E-02  5.439738160595E-02
  4.743098745606E-02  4.112928129082E-02  3.545555275341E-02  3.037261275044E-02
  2.584301313623E-02  2.182926792510E-02  1.829407378390E-02  1.520052747645E-02
  1.251233788215E-02  1.019403019714E-02  8.211139950840E-03  6.530394535221E-03
  5.119880052258E-03  3.949191435590E-03  2.989563997603E-03  2.213984790540E-03
  1.597282448694E-03  1.116194494497E-03  7.494114402233E-04  4.775973931420E-04
  2.833872684940E-04  1.513611234308E-04  6.799653705681E-05  2.160036694612E-05
  2.221600477234E-06  1.547379138755E-06  1.278459474717E-05  3.052972775202E-05
  5.062980972483E-05  7.003753613985E-05  8.666362465309E-05  9.922950326161E-05
  1.071233193318E-04  1.102620845557E-04  1.089625153739E-04  1.038227992768E-04
  9.561712372404E-05  8.520435816755E-05  7.345179548559E-05  6.117435388955E-05
  4.908913256648E-05  3.778472340462E-05  2.770422662374E-05  1.914051865707E-05
  1.224199303696E-05  7.026753363002E-06  3.403092022312E-06  1.194045070203E-06
  1.638734027562E-07  4.447853092912E-08  5.600079730072E-07  1.448225511267E-06
  2.477595884061E-06  3.459439071484E-06  4.254921253297E-06  4.777042309926E-06
  4.988129113876E-06  4.893628449383E-06  4.533196387980E-06  3.970191471868E-06
  3.280693208480E-06  2.543088709527E-06  1.829109727748E-06  1.196977386209E-06
  6.870453373861E-07  3.200500326637E-07  9.780630656885E-08  5.953087986906E-09
  1.817914779533E-08  1.012574631049E-07  2.201961307206E-07  3.428720677092E-07
  4.436405223883E-07  5.055905745852E-07  5.213206422058E-07  4.923120923207E-07
  4.271574700580E-07  3.390305696076E-07  2.428533620766E-07  1.526133938433E-07
  7.921829060042E-08  2.915448501305E-08  4.065810528364E-09
</data>
</radfunc>
</pseudocore-charge>
<semilocal-potentials set="scalar_relativistic">
<slps n="5" l="s" rc="2.02041926594" eref="-0.648700508763">
<radfunc>
<data npts="291">
  2.661376511774E+01  2.660334509055E+01  2.657122616182E+01  2.651817152773E+01
  2.644463750148E+01  2.634835319544E+01  2.622630240282E+01  2.608744735181E+01
  2.593246033032E+01  2.575322839677E+01  2.555312377597E+01  2.533789856367E+01
  2.508089672815E+01  2.481605260283E+01  2.455504907057E+01  2.425873973678E+01
  2.392313941220E+01  2.361043559926E+01  2.326502379267E+01  2.288435735239E+01
  2.246589958001E+01  2.210226006687E+01  2.171164563392E+01  2.129293260583E+01
  2.084510823439E+01  2.036730281391E+01  1.985882421764E+01  1.945703923363E+01
  1.903761571018E+01  1.860053128378E+01  1.814586066291E+01  1.767378396683E+01
  1.718459449884E+01  1.667870573869E+01  1.615665733164E+01  1.561911985112E+01
  1.506689811890E+01  1.450093288208E+01  1.411651352558E+01  1.372681377278E+01
  1.333221169051E+01  1.293311059867E+01  1.252993819510E+01  1.212314549390E+01
  1.171320557982E+01  1.130061218405E+01  1.088587808873E+01  1.046953336991E+01
  1.005212349062E+01  9.634207258013E+00  9.216354659681E+00  8.799144596412E+00
  8.383162529164E+00  7.968998059220E+00  7.557242460751E+00  7.148486185054E+00
  6.743316355336E+00  6.342314270138E+00  5.946052932233E+00  5.555094618299E+00
  5.169988502684E+00  4.791268346336E+00  4.419450259442E+00  4.055030543574E+00
  3.698483616242E+00  3.350260017801E+00  3.010784497629E+00  2.844452494550E+00
  2.680454173636E+00  2.518834565889E+00  2.359636756381E+00  2.202901831479E+00
  2.048668826588E+00  1.896974674284E+00  1.747854152721E+00  1.601339834177E+00
  1.457462033611E+00  1.316248757101E+00  1.177725650037E+00  1.041915944945E+00
  9.088404088147E-01  7.785172898383E-01  6.509622634423E-01  5.261883775375E-01
  4.042059969121E-01  2.850227467164E-01  1.686434550116E-01  5.507009437728E-02
 -5.569827739645E-02 -1.636655774724E-01 -2.688387588899E-01 -3.712278721113E-01
 -4.708461270058E-01 -5.677099550397E-01 -6.618390713790E-01 -7.532565365590E-01
 -8.419888173027E-01 -9.280658460038E-01 -1.011521078316E+00 -1.092391548204E+00
 -1.170717919744E+00 -1.246544534838E+00 -1.319919455968E+00 -1.390894502967E+00
 -1.459525282709E+00 -1.525871210542E+00 -1.589995522134E+00 -1.651965274363E+00
 -1.711851333740E+00 -1.769728350778E+00 -1.825674718640E+00 -1.879772514299E+00
 -1.932107420399E+00 -1.982768625914E+00 -2.031848703718E+00 -2.079443463086E+00
 -2.125651775219E+00 -2.170575369855E+00 -2.214318601117E+00 -2.256988180838E+00
 -2.298692877695E+00 -2.339543180695E+00 -2.379650925716E+00 -2.419128884095E+00
 -2.458090312522E+00 -2.496648463850E+00 -2.534916058855E+00 -2.573004719367E+00
 -2.611024363721E+00 -2.649082566016E+00 -2.687283881188E+00 -2.725729138584E+00
 -2.764514707294E+00 -2.803731737198E+00 -2.843465380318E+00 -2.883793997750E+00
 -2.924788358088E+00 -2.966510833885E+00 -3.009014603280E+00 -3.052342864438E+00
 -3.096528070939E+00 -3.141591196622E+00 -3.187541038667E+00 -3.234373567928E+00
 -3.282071335567E+00 -3.330602945024E+00 -3.379922598200E+00 -3.429969724453E+00
 -3.480668700622E+00 -3.531928669795E+00 -3.583643465975E+00 -3.635691651122E+00
 -3.687936670349E+00 -3.740227130298E+00 -3.792397204989E+00 -3.844267172696E+00