<?xml version="1.0" encoding="UTF-8" ?>
<psml version="1.1" energy_unit="hartree" length_unit="bohr"
 uuid="42d55930-23d3-11e8-4fd4-3a26aff7747f"
 xmlns="http://esl.cecam.org/PSML/ns/1.1">
<provenance creator="ONCVPSP-3.3.0+psml-3.3.0-73 (scalar-relativistic)"
 date="2018-03-09">
<annotation action="semilocal-pseudopotential-generation"
 action-cont="projectors-generation" />
<input-file name="oncvpsp-input">
<![CDATA[# atsym z nc nv iexc psfile
In 49 8 3 -001012 upf
# n l f
1 0 2.0
2 0 2.0
2 1 6.0
3 0 2.0
3 1 6.0
3 2 10.0
4 0 2.0
4 1 6.0
4 2 10.0
5 0 2.0
5 1 1.0
# lmax
2
# l rc ep ncon nbas qcut
0 2.2 0.0 5 8 2.8
1 2.35 0.0 5 8 2.8
2 1.85 0.0 4 7 8.2
# lloc lpopt rc5 dvloc0
4 5 1.7 0.0
# l nproj debl
0 2 1.1
1 2 3.0
2 2 1.5
# icmod fcfact rcfact
3 5.0 1.44
# epsh1 epsh2 depsh
-112.0 12.0 0.02
# rlmax drl
6.0 0.01
 0
]]>
</input-file>
</provenance>
<pseudo-atom-spec atomic-label="In" atomic-number="49" z-pseudo="13"
 flavor="Hamann&apos;s oncvpsp" relativity="scalar" spin-dft="no"
 core-corrections="yes">
<annotation pseudo-energy="-56.6191668848" />
<exchange-correlation>
<annotation oncvpsp-xc-code="-1012" oncvpsp-xc-type="libxc-interface" />
<libxc-info number-of-functionals="2">
<functional name="Slater exchange (LDA)" type="exchange" id="1" />
<functional name="Perdew &amp; Wang (LDA)" type="correlation" id="12" />
</libxc-info>
</exchange-correlation>
<valence-configuration total-valence-charge="13">
<shell n="4" l="d" occupation="10" />
<shell n="5" l="s" occupation="2" />
<shell n="5" l="p" occupation="1" />
</valence-configuration>
</pseudo-atom-spec>
<grid npts="457">
<annotation type="sampled from oncvpsp log grid"
 recipe="r(i:1..N) = r1*exp(a*(i-1)) + r=0; resampled"
 recipe-cont="r1: scale; a: step" scale="0.102040816327E-04"
 step="0.119285708653E-01" delta="0.500000000000E-02" rmax="44.1581064066" />
<grid-data>
  0.000000000000E+00  5.042436366198E-03  1.007187092528E-02  1.510941245291E-02
  2.011777176121E-02  2.523536637175E-02  3.054202401815E-02  3.566518465412E-02
  4.066587435065E-02  4.581790627188E-02  5.101053189425E-02  5.611822836574E-02
  6.173735967777E-02  6.711377067229E-02  7.295838755272E-02  7.837152581763E-02
  8.418629118611E-02  8.936016040508E-02  9.485200209104E-02  1.006813580000E-01
  1.068689708730E-01  1.120917571602E-01  1.175697858846E-01  1.233155309823E-01
  1.293420760023E-01  1.356631438985E-01  1.422931282787E-01  1.474773974107E-01
  1.528505487941E-01  1.584194641135E-01  1.641912757790E-01  1.701733760607E-01
  1.763734265569E-01  1.827993680065E-01  1.894594304590E-01  1.963621438154E-01
  2.035163487527E-01  2.109312080467E-01  2.160239311338E-01  2.212396129270E-01
  2.265812221416E-01  2.320517991689E-01  2.376544578081E-01  2.433923870374E-01
  2.492688528300E-01  2.552872000128E-01  2.614508541699E-01  2.677633235929E-01
  2.742282012778E-01  2.808491669694E-01  2.876299892567E-01  2.945745277173E-01
  3.016867351146E-01  3.089706596472E-01  3.164304472537E-01  3.240703439722E-01
  3.318946983570E-01  3.399079639542E-01  3.481147018359E-01  3.565195831970E-01
  3.651273920137E-01  3.739430277665E-01  3.829715082289E-01  3.922179723236E-01
  4.016876830473E-01  4.113860304668E-01  4.213185347864E-01  4.263743572039E-01
  4.314908494903E-01  4.366687396842E-01  4.419087645604E-01  4.472116697351E-01
  4.525782097720E-01  4.580091482892E-01  4.635052580687E-01  4.690673211655E-01
  4.746961290195E-01  4.803924825677E-01  4.861571923585E-01  4.919910786669E-01
  4.978949716109E-01  5.038697112702E-01  5.099161478054E-01  5.160351415791E-01
  5.222275632780E-01  5.284942940374E-01  5.348362255658E-01  5.412542602726E-01
  5.477493113959E-01  5.543223031326E-01  5.609741707702E-01  5.677058608195E-01
  5.745183311493E-01  5.814125511231E-01  5.883895017366E-01  5.954501757574E-01
  6.025955778665E-01  6.098267248009E-01  6.171446454985E-01  6.245503812445E-01
  6.320449858194E-01  6.396295256493E-01  6.473050799571E-01  6.550727409165E-01
  6.629336138075E-01  6.708888171732E-01  6.789394829793E-01  6.870867567751E-01
  6.953317978564E-01  7.036757794306E-01  7.121198887838E-01  7.206653274492E-01
  7.293133113786E-01  7.380650711151E-01  7.469218519685E-01  7.558849141921E-01
  7.649555331624E-01  7.741349995604E-01  7.834246195551E-01  7.928257149898E-01
  8.023396235697E-01  8.119676990525E-01  8.217113114411E-01  8.315718471784E-01
  8.415507093446E-01  8.516493178567E-01  8.618691096710E-01  8.722115389870E-01
  8.826780774549E-01  8.932702143843E-01  9.039894569569E-01  9.148373304404E-01
  9.258153784057E-01  9.369251629466E-01  9.481682649019E-01  9.595462840808E-01
  9.710608394897E-01  9.827135695636E-01  9.945061323984E-01  1.006440205987E+00
  1.018517488459E+00  1.030739698321E+00  1.043108574700E+00  1.055625877597E+00
  1.068293388128E+00  1.081112908785E+00  1.094086263691E+00  1.107215298855E+00
  1.120501882441E+00  1.133947905031E+00  1.147555279891E+00  1.161325943250E+00
  1.175261854569E+00  1.189364996824E+00  1.203637376785E+00  1.218081025307E+00
  1.232697997611E+00  1.247490373582E+00  1.262460258065E+00  1.277609781162E+00
  1.292941098536E+00  1.308456391718E+00  1.324157868419E+00  1.340047762840E+00
  1.356128335994E+00  1.372401876026E+00  1.388870698538E+00  1.405537146920E+00
  1.422403592684E+00  1.439472435796E+00  1.456746105025E+00  1.474227058286E+00
  1.491917782985E+00  1.509820796381E+00  1.527938645937E+00  1.546273909689E+00
  1.564829196605E+00  1.583607146964E+00  1.602610432728E+00  1.621841757920E+00
  1.641303859016E+00  1.660999505324E+00  1.680931499388E+00  1.701102677380E+00
  1.721515909509E+00  1.742174100423E+00  1.763080189628E+00  1.784237151904E+00
  1.805647997726E+00  1.827315773699E+00  1.849243562983E+00  1.871434485739E+00
  1.893891699568E+00  1.916618399963E+00  1.939617820762E+00  1.962893234612E+00
  1.986447953427E+00  2.010285328868E+00  2.034408752815E+00  2.058821657848E+00
  2.083527517742E+00  2.108529847955E+00  2.133832206131E+00  2.159438192604E+00
  2.185351450916E+00  2.211575668327E+00  2.238114576347E+00  2.264971951263E+00
  2.292151614678E+00  2.319657434054E+00  2.347493323263E+00  2.375663243142E+00
  2.404171202060E+00  2.433021256484E+00  2.462217511562E+00  2.491764121701E+00
  2.521665291161E+00  2.551925274655E+00  2.582548377951E+00  2.613538958486E+00
  2.644901425988E+00  2.676640243100E+00  2.708759926017E+00  2.741265045130E+00
  2.774160225671E+00  2.807450148379E+00  2.841139550160E+00  2.875233224762E+00
  2.909736023459E+00  2.944652855740E+00  2.979988690009E+00  3.015748554289E+00
  3.051937536941E+00  3.088560787384E+00  3.125623516833E+00  3.163130999035E+00
  3.201088571023E+00  3.239501633875E+00  3.278375653482E+00  3.317716161324E+00
  3.357528755259E+00  3.397819100323E+00  3.438592929526E+00  3.479856044681E+00
  3.521614317217E+00  3.563873689024E+00  3.606640173292E+00  3.649919855371E+00
  3.693718893636E+00  3.738043520359E+00  3.782900042604E+00  3.828294843115E+00
  3.874234381232E+00  3.920725193807E+00  3.967773896133E+00  4.015387182886E+00
  4.063571829081E+00  4.112334691030E+00  4.161682707322E+00  4.211622899810E+00
  4.262162374608E+00  4.313308323103E+00  4.365068022981E+00  4.417448839256E+00
  4.470458225327E+00  4.524103724031E+00  4.578392968720E+00  4.633333684344E+00
  4.688933688556E+00  4.745200892819E+00  4.802143303533E+00  4.859769023175E+00
  4.918086251453E+00  4.977103286471E+00  5.036828525909E+00  5.097270468219E+00
  5.158437713838E+00  5.220338966404E+00  5.282983034001E+00  5.346378830409E+00
  5.410535376374E+00  5.475461800890E+00  5.541167342501E+00  5.607661350611E+00
  5.674953286818E+00  5.743052726260E+00  5.811969358975E+00  5.881712991283E+00
  5.952293547178E+00  6.023721069745E+00  6.096005722582E+00  6.169157791252E+00
  6.243187684748E+00  6.318105936964E+00  6.393923208208E+00  6.470650286707E+00
  6.548298090147E+00  6.626877667229E+00  6.706400199236E+00  6.786877001626E+00
  6.868319525646E+00  6.950739359954E+00  7.034148232273E+00  7.118558011060E+00
  7.203980707193E+00  7.290428475679E+00  7.377913617388E+00  7.466448580796E+00
  7.556045963766E+00  7.646718515331E+00  7.738479137515E+00  7.831340887165E+00
  7.925316977811E+00  8.020420781545E+00  8.116665830923E+00  8.214065820894E+00
  8.312634610745E+00  8.412386226074E+00  8.513334860787E+00  8.615494879116E+00
  8.718880817666E+00  8.823507387478E+00  8.929389476128E+00  9.036542149841E+00
  9.144980655639E+00  9.254720423507E+00  9.365777068589E+00  9.478166393412E+00
  9.591904390133E+00  9.707007242815E+00  9.823491329728E+00  9.941373225685E+00
  1.006066970439E+01  1.018139774085E+01  1.030357451374E+01  1.042721740790E+01
  1.055234401680E+01  1.067897214500E+01  1.080711981074E+01  1.093680524847E+01
  1.106804691145E+01  1.120086347439E+01  1.133527383608E+01  1.147129712211E+01
  1.160895268758E+01  1.174826011983E+01  1.188923924126E+01  1.203191011216E+01
  1.217629303351E+01  1.232240854991E+01  1.247027745251E+01  1.261992078194E+01
  1.277135983132E+01  1.292461614930E+01  1.307971154309E+01  1.323666808160E+01
  1.339550809858E+01  1.355625419577E+01  1.371892924612E+01  1.388355639707E+01
  1.405015907383E+01  1.421876098272E+01  1.438938611451E+01  1.456205874789E+01
  1.473680345286E+01  1.491364509430E+01  1.509260883543E+01  1.527372014145E+01
  1.545700478315E+01  1.564248884055E+01  1.583019870663E+01  1.602016109111E+01
  1.621240302421E+01  1.640695186050E+01  1.660383528282E+01  1.680308130622E+01
  1.700471828189E+01  1.720877490128E+01  1.741528020009E+01  1.762426356249E+01
  1.783575472524E+01  1.804978378194E+01  1.826638118733E+01  1.848557776158E+01
  1.870740469471E+01  1.893189355105E+01  1.915907627366E+01  1.938898518895E+01
  1.962165301122E+01  1.985711284735E+01  2.009539820152E+01  2.033654297994E+01
  2.058058149570E+01  2.082754847364E+01  2.107747905533E+01  2.133040880399E+01
  2.158637370964E+01  2.184541019416E+01  2.210755511649E+01  2.237284577788E+01
  2.264131992722E+01  2.291301576634E+01  2.318797195554E+01  2.346622761901E+01
  2.374782235043E+01  2.403279621864E+01  2.432118977326E+01  2.461304405054E+01
  2.490840057915E+01  2.520730138610E+01  2.550978900273E+01  2.581590647077E+01
  2.612569734841E+01  2.643920571660E+01  2.675647618519E+01  2.707755389942E+01
  2.740248454621E+01  2.773131436076E+01  2.806409013309E+01  2.840085921469E+01
  2.874166952527E+01  2.908656955957E+01  2.943560839428E+01  2.978883569502E+01
  3.014630172336E+01  3.050805734404E+01  3.087415403217E+01  3.124464388055E+01
  3.161957960712E+01  3.199901456240E+01  3.238300273715E+01  3.277159877000E+01
  3.316485795524E+01  3.356283625070E+01  3.396559028571E+01  3.437317736914E+01
  3.478565549757E+01  3.520308336354E+01  3.562552036390E+01  3.605302660827E+01
  3.648566292757E+01  3.692349088270E+01  3.736657277329E+01  3.781497164657E+01
  3.826875130633E+01  3.872797632200E+01  3.919271203787E+01  3.966302458232E+01
  4.013898087731E+01  4.062064864784E+01  4.110809643161E+01  4.160139358879E+01
  4.210061031186E+01  4.260581763560E+01  4.311708744723E+01  4.363449249659E+01
  4.415810640655E+01
</grid-data>
</grid>
<valence-charge total-charge="13" is-unscreening-charge="yes"
 rescaled-to-z-pseudo="no">
<radfunc>
<data npts="457">
  4.755276776865E-03  4.757964796086E-03  4.768052188674E-03  4.791725300044E-03
  4.838854761243E-03  4.925980241534E-03  5.078412183059E-03  5.309882618599E-03
  5.642657795434E-03  6.127565054453E-03  6.798977852761E-03  7.678595043148E-03
  8.949617534690E-03  1.051959315256E-02  1.268949035103E-02  1.519913415626E-02
  1.851200890886E-02  2.206908674993E-02  2.655087120970E-02  3.219599971750E-02
  3.930345469084E-02  4.629065938140E-02  5.468470901896E-02  6.476399548700E-02
  7.686012887193E-02  9.136747045539E-02  1.087541586839E-01  1.240137217368E-01
  1.414733074732E-01  1.614391389325E-01  1.842573564764E-01  2.103185707965E-01
  2.400627762514E-01  2.739846108522E-01  3.126389342984E-01  3.566466762965E-01
  4.067008831375E-01  4.635728602942E-01  5.056940607224E-01  5.514993977027E-01
  6.012830107347E-01  6.553582715885E-01  7.140583793288E-01  7.777368558010E-01
  8.467679155051E-01  9.215466801571E-01  1.002489204333E+00  1.090032274421E+00
  1.184632938693E+00  1.286767721721E+00  1.396931471639E+00  1.515635783967E+00
  1.643406941037E+00  1.780783301540E+00  1.928312070613E+00  2.086545377329E+00
  2.256035583789E+00  2.437329748456E+00  2.630963166307E+00  2.837451910247E+00
  3.057284302425E+00  3.290911251167E+00  3.538735399748E+00  3.801099047807E+00
  4.078270825414E+00  4.370431124425E+00  4.677656322274E+00  4.836909544534E+00
  4.999901870596E+00  5.166605895077E+00  5.336984365308E+00  5.510989577750E+00
  5.688562766662E+00  5.869633487434E+00  6.054118997342E+00  6.241923636728E+00
  6.432938213978E+00  6.627039397969E+00  6.824089122006E+00  7.023934003614E+00
  7.226404784895E+00  7.431315798538E+00  7.638464464872E+00  7.847630825774E+00
  8.058577121512E+00  8.271047416982E+00  8.484767284088E+00  8.699443547304E+00
  8.914764099732E+00  9.130397797158E+00  9.345994437848E+00  9.561184835903E+00
  9.775580996104E+00  9.988776398191E+00  1.020034639843E+01  1.040984875624E+01
  1.061682429330E+01  1.082079769242E+01  1.102127844282E+01  1.121776193801E+01
  1.140973073182E+01  1.159665595714E+01  1.177799891131E+01  1.195321281062E+01
  1.212174471544E+01  1.228303762595E+01  1.243653274704E+01  1.258167191902E+01
  1.271790020931E+01  1.284466865794E+01  1.296143716782E+01  1.306767752842E+01
  1.316287655921E+01  1.324653935690E+01  1.331819262777E+01  1.337738808425E+01
  1.342370588219E+01  1.345675807283E+01  1.347619204129E+01  1.348169390077E+01
  1.347299181004E+01  1.344985917952E+01  1.341211772985E+01  1.335964036566E+01
  1.329235382604E+01  1.321024107318E+01  1.311334338020E+01  1.300176208024E+01
  1.287565993958E+01  1.273526211969E+01  1.258085669523E+01  1.241279469844E+01
  1.223148966378E+01  1.203741665167E+01  1.183111073472E+01  1.161316493629E+01
  1.138422761722E+01  1.114499931372E+01  1.089622903670E+01  1.063871005086E+01
  1.037327515946E+01  1.010079152931E+01  9.822155098102E+00  9.538284614482E+00
  9.250115368430E+00  8.958592676637E+00  8.664665193615E+00  8.369278124562E+00
  8.073366420128E+00  7.777848036135E+00  7.483617342774E+00  7.191538767806E+00
  6.902440756692E+00  6.617110129361E+00  6.336286908462E+00  6.060659687505E+00
  5.790861599370E+00  5.527466936308E+00  5.270988462119E+00  5.021875445684E+00
  4.780512432906E+00  4.547218761516E+00  4.322248810562E+00  4.105792963937E+00
  3.897979255443E+00  3.698875651835E+00  3.508492920448E+00  3.326788019524E+00
  3.153667942474E+00  2.988993942204E+00  2.832586058280E+00  2.684227868243E+00
  2.543671384635E+00  2.410642021191E+00  2.284843554999E+00  2.165963015935E+00
  2.053675440166E+00  1.947648430601E+00  1.847546473580E+00  1.753034967629E+00
  1.663783926413E+00  1.579471324052E+00  1.499786056458E+00  1.424430497442E+00
  1.353122632926E+00  1.285597760840E+00  1.221609748395E+00  1.160931842584E+00
  1.103357034394E+00  1.048697982374E+00  9.967865070347E-01  9.474726743013E-01
  9.006227828400E-01  8.561143614507E-01  8.138299662429E-01  7.736572295080E-01
  7.354887638819E-01  6.992221010465E-01  6.647596038566E-01  6.320083556316E-01
  6.008800301106E-01  5.712907453417E-01  5.431609046082E-01  5.164150274127E-01
  4.909815735715E-01  4.667927636365E-01  4.437843994709E-01  4.218956911880E-01
  4.010690967110E-01  3.812501678009E-01  3.623873935759E-01  3.444320502108E-01
  3.273380583378E-01  3.110618511181E-01  2.955622515745E-01  2.808003545913E-01
  2.667394116963E-01  2.533447176446E-01  2.405835006367E-01  2.284248157562E-01
  2.168394420077E-01  2.057997831120E-01  1.952797721989E-01  1.852547804985E-01
  1.757015300965E-01  1.665980107917E-01  1.579234010601E-01  1.496579931092E-01
  1.417831219798E-01  1.342810986344E-01  1.271351469534E-01  1.203293445420E-01
  1.138485672410E-01  1.076784372215E-01  1.018052745325E-01  9.621605196698E-02
  9.089835310087E-02  8.584033336154E-02  8.103068396453E-02  7.645859858532E-02
  7.211374259528E-02  6.798622471831E-02  6.406657095564E-02  6.034570063035E-02
  5.681490440631E-02  5.346582413968E-02  5.029043442591E-02  4.728102570942E-02
  4.443018882892E-02  4.173080087629E-02  3.917601225323E-02  3.675923481549E-02
  3.447413100100E-02  3.231460384395E-02  3.027478778366E-02  2.834904018271E-02
  2.653193347553E-02  2.481824787416E-02  2.320296456433E-02  2.168125933035E-02
  2.024849655309E-02  1.890022353082E-02  1.763216507741E-02  1.644021835777E-02
  1.532044792474E-02  1.426908092613E-02  1.328250245457E-02  1.235725101739E-02
  1.149001410556E-02  1.067762384628E-02  9.917052725118E-03  9.205409367049E-03
  8.539934367967E-03  7.917996170633E-03  7.337086980869E-03  6.794818721576E-03
  6.288919023656E-03  5.817227254183E-03  5.377690583282E-03  4.968360092025E-03
  4.587386924415E-03  4.233018487035E-03  3.903594700378E-03  3.597544306108E-03
  3.313381234677E-03  3.049701037722E-03  2.805177389635E-03  2.578558662536E-03
  2.368664578652E-03  2.174382943863E-03  1.994666465801E-03  1.828529659561E-03
  1.675045843682E-03  1.533344228608E-03  1.402607099477E-03  1.282067094584E-03
  1.171004580491E-03  1.068745124305E-03  9.746570632535E-04  8.881491712832E-04
  8.086684220568E-04  7.356978473605E-04  6.687544896282E-04  6.073874469960E-04
  5.511760090384E-04  4.997278811091E-04  4.526774950093E-04  4.096844035362E-04
  3.704317563219E-04  3.346248542637E-04  3.019897797570E-04  2.722720998850E-04
  2.452356396808E-04  2.206613225652E-04  1.983460750645E-04  1.781017929419E-04
  1.597543659088E-04  1.431427581401E-04  1.281181418799E-04  1.145430814991E-04
  1.022907654494E-04  9.124428364675E-05  8.129594791184E-05  7.234665319080E-05
  6.430527737934E-05  5.708811767186E-05  5.061836145625E-05  4.482558987260E-05
  3.964531224906E-05  3.501852972075E-05  3.089132642649E-05  2.721448676349E-05
  2.394313726169E-05  2.103641171632E-05  1.845713829012E-05  1.617154736564E-05
  1.414899899181E-05  1.236172882987E-05  1.078461155969E-05  9.394940760462E-06
  8.172224328838E-06  7.097994543549E-06  6.155631928695E-06  5.330202108133E-06
  4.608304881356E-06  3.977934787032E-06  3.428352454149E-06  2.949966072864E-06
  2.534222347772E-06  2.173506325581E-06  1.861049517369E-06  1.590845762712E-06
  1.357574309213E-06  1.156529606418E-06  9.835573378204E-07  8.349962387167E-07
  7.076252711337E-07  5.986157498793E-07  5.054880360574E-07  4.260724360808E-07
  3.584739653373E-07  3.010406561893E-07  2.523351099110E-07  2.111090114569E-07
  1.762803445960E-07  1.469130629131E-07  1.221989894570E-07  1.014417343765E-07
  8.404243571871E-08  6.948714365681E-08  5.733568275515E-08  4.721184046458E-08
  3.879474286839E-08  3.181129077407E-08  2.602954057502E-08  2.125292490103E-08
  1.731521795300E-08  1.407615959398E-08  1.141766076809E-08  9.240520664481E-09
  7.461593263618E-09  6.011347524989E-09  4.831771529506E-09  3.874576407439E-09
  3.099660894801E-09  2.473801899765E-09  1.969540557771E-09  1.564236939803E-09
  1.239269885896E-09  9.793613914057E-10  7.720076095758E-10  6.070008752453E-10
  4.760292286519E-10  3.723417497002E-10  2.904696251209E-10  2.259942855210E-10
  1.753551867095E-10  1.356908887054E-10  1.047080238052E-10  8.057355789645E-11
  6.182645133756E-11  4.730543034610E-11  3.609009884084E-11  2.745306478607E-11
  2.082113388643E-11  1.574394554913E-11  1.186869898580E-11  8.919847911558E-12
  6.682836459495E-12  4.991111886411E-12  3.715785964887E-12  2.757430616737E-12
  2.039587794410E-12  1.503651843636E-12  1.104847151043E-12  8.090769975230E-13
  5.904630836212E-13  4.294307686086E-13  3.112240277440E-13  2.247576286859E-13
  1.617330222585E-13  1.159597425134E-13  8.283639035309E-14  5.895509423420E-14
  4.180116458702E-14  2.952586818474E-14  2.077515904572E-14  1.456107066349E-14
  1.016550992571E-14  7.068565967875E-15  4.895295154090E-15  3.376375459515E-15
  2.319132080108E-15  1.586285933454E-15  1.080430371109E-15  7.327388632104E-16
  4.947847888997E-16  3.326407010124E-16  2.226400820728E-16  1.483463754672E-16
  9.839489343574E-17  6.496303905220E-17  4.269077909048E-17  2.792230777623E-17
  1.817578624807E-17  1.177428689043E-17  7.590143762678E-18  4.868704630552E-18
  3.107409338908E-18  1.973231793800E-18  1.246592655592E-18  7.834461104244E-19
  4.897803057234E-19  0.000000000000E+00  0.000000000000E+00  0.000000000000E+00
  0.000000000000E+00
</data>
</radfunc>
</valence-charge>
<pseudocore-charge matching-radius="0.925815378406"
 number-of-continuous-derivatives="4">
<annotation model-charge-form="Teter function with specified parameters" />
<radfunc>
<data npts="290">
  6.274110038658E+01  6.273826465832E+01  6.272978741790E+01  6.271564348271E+01
  6.269597650909E+01  6.267011286770E+01  6.263714394129E+01  6.259938331662E+01
  6.255691485867E+01  6.250737560953E+01  6.245151788183E+01  6.239078206943E+01
  6.231734831558E+01  6.224061798468E+01  6.215005564026E+01  6.205956131847E+01
  6.195529373792E+01  6.185639888506E+01  6.174515196571E+01  6.162003543384E+01
  6.147935209019E+01  6.135433022745E+01  6.121706491260E+01  6.106638738159E+01
  6.090102364904E+01  6.071958638463E+01  6.052056646008E+01  6.035878170333E+01
  6.018544447941E+01  5.999976576522E+01  5.980090816684E+01  5.958798382273E+01
  5.936005236379E+01  5.911611896330E+01  5.885513251580E+01  5.857598399044E+01
  5.827750501222E+01  5.795846673286E+01  5.773371816475E+01  5.749886257220E+01
  5.725349034542E+01  5.699717978350E+01  5.672949722054E+01  5.644999721842E+01
  5.615822283403E+01  5.585370596928E+01  5.553596781279E+01  5.520451938282E+01
  5.485886218170E+01  5.449848897266E+01  5.412288469055E+01  5.373152749878E+01
  5.332389000515E+01  5.289944065029E+01  5.245764528245E+01  5.199796893343E+01
  5.151987781058E+01  5.102284152003E+01  5.050633553691E+01  4.996984393791E+01
  4.941286241182E+01  4.883490156290E+01  4.823549052176E+01  4.761418087702E+01
  4.697055094017E+01  4.630421035382E+01  4.561480505195E+01  4.526135371170E+01
  4.490202257736E+01  4.453678002455E+01  4.416559775866E+01  4.378845101178E+01
  4.340531874494E+01  4.301618385579E+01  4.262103339135E+01  4.221985876587E+01
  4.181265598343E+01  4.139942586528E+01  4.098017428137E+01  4.055491238615E+01
  4.012365685792E+01  3.968643014175E+01  3.924326069523E+01  3.879418323682E+01
  3.833923899623E+01  3.787847596626E+01  3.741194915554E+01  3.693972084150E+01
  3.646186082290E+01  3.597844667113E+01  3.548956397941E+01  3.499530660916E+01
  3.449577693239E+01  3.399108606930E+01  3.348135411991E+01  3.296671038851E+01
  3.244729359995E+01  3.192325210623E+01  3.139474408220E+01  3.086193770900E+01
  3.032501134356E+01  2.978415367281E+01  2.923956385093E+01  2.869145161791E+01
  2.814003739773E+01  2.758555237444E+01  2.702823854415E+01  2.646834874116E+01
  2.590614663631E+01  2.534190670546E+01  2.477591416635E+01  2.420846488152E+01
  2.363986522565E+01  2.307043191499E+01  2.250049179713E+01  2.193038159902E+01
  2.136044763147E+01  2.079104544811E+01  2.022253945726E+01  1.965530248488E+01
  1.908971528717E+01  1.852616601141E+01  1.796504960374E+01  1.740676716299E+01
  1.685172523955E+01  1.630033507885E+01  1.575301180910E+01  1.521017357319E+01
  1.467224060522E+01  1.413963425213E+01  1.361277594162E+01  1.309208609779E+01
  1.257798300629E+01  1.207088163151E+01  1.157119238850E+01  1.107931987307E+01
  1.059566155399E+01  1.012060643167E+01  9.654533668417E+00  9.197811195890E+00
  8.750794305866E+00  8.313824231231E+00  7.887226724497E+00  7.471310641835E+00
  7.066366541147E+00  6.672665303207E+00  6.290456785460E+00  5.919968518453E+00
  5.561404455331E+00  5.214943785155E+00  4.880739821039E+00  4.558918974339E+00
  4.249579826165E+00  3.952792307498E+00  3.668596999045E+00  3.397004561713E+00
  3.137995308178E+00  2.891518925472E+00  2.657494357841E+00  2.435809858231E+00
  2.226323215771E+00  2.028862165406E+00  1.843224984506E+00  1.669181279718E+00
  1.506472965684E+00  1.354815435403E+00  1.213898920021E+00  1.083390033790E+00
  9.629334976938E-01  8.521540329800E-01  7.506584135225E-01  6.580376635676E-01
  5.738693851037E-01  4.977201968096E-01  4.291482643613E-01  3.677058998413E-01
  3.129422061474E-01  2.644057406944E-01  2.216471713791E-01  1.842218967954E-01
  1.516926020815E-01  1.236317215963E-01  9.962377990000E-02  7.926758327930E-02
  6.217823533221E-02  4.798895193330E-02  3.635265322575E-02  2.694331313179E-02
  1.945705020893E-02  1.361294746807E-02  9.153592958247E-03  5.845337442735E-03
  3.478270259279E-03  1.865919376755E-03  8.446866222855E-04  2.730339376858E-04
  3.044120516922E-05  1.616052879821E-05  1.477957390677E-04  3.597391763787E-04
  6.015003870128E-04  8.359631284957E-04  1.037607944880E-03  1.190737475247E-03
  1.287740567785E-03  1.327429186307E-03  1.313479050420E-03  1.253001015424E-03
  1.155265481359E-03  1.030596765394E-03  8.894485533903E-04  7.416654671563E-04
  5.959296662100E-04  4.593854803935E-04  3.374295776983E-04  2.336493352730E-04
  1.498881044800E-04  8.641311339333E-05  4.215995853140E-05  1.502707467599E-05
  2.194249543618E-06  4.411165186801E-07  6.444496241928E-06  1.703728781484E-05
  2.941610041918E-05  4.128969242608E-05  5.096524795003E-05  5.737426355762E-05
  6.004404717892E-05  5.902428832395E-05  5.478063885006E-05  4.806861327632E-05
  3.980132698755E-05  3.092367932580E-05  2.230368504660E-05  1.464897057876E-05
  8.453253499760E-06  3.974228012389E-06  1.241012178507E-06  8.648249913703E-08
  1.976880208250E-07  1.176284081376E-06  2.600644147630E-06  4.081979761709E-06
  5.308300685950E-06  6.072164591362E-06  6.280614573126E-06  5.948165498867E-06
  5.175863817370E-06  4.121042399380E-06  2.963235752850E-06  1.871732131560E-06
  9.794571405396E-07  3.664618987809E-07  5.447296227218E-08  0.000000000000E+00
  0.000000000000E+00  0.000000000000E+00  0.000000000000E+00  0.000000000000E+00
  0.000000000000E+00  0.000000000000E+00  0.000000000000E+00  0.000000000000E+00
  0.000000000000E+00  0.000000000000E+00  0.000000000000E+00  0.000000000000E+00
  0.000000000000E+00  0.000000000000E+00  0.000000000000E+00  0.000000000000E+00
  0.000000000000E+00  0.000000000000E+00  0.000000000000E+00  0.000000000000E+00
  0.000000000000E+00  0.000000000000E+00  0.000000000000E+00  0.000000000000E+00
  0.000000000000E+00  0.000000000000E+00  0.000000000000E+00  0.000000000000E+00
  0.000000000000E+00  0.000000000000E+00  0.000000000000E+00  0.000000000000E+00
  0.000000000000E+00  0.000000000000E+00
</data>
</radfunc>
</pseudocore-charge>
<semilocal-potentials set="scalar_relativistic">
<slps n="5" l="s" rc="2.21157566833" eref="-0.311709475271">
<radfunc>
<data npts="290">
  1.817353964235E+01  1.816359662214E+01  1.813390319309E+01  1.808446291848E+01
  1.801592804748E+01  1.792617136849E+01  1.781236545576E+01  1.768285030849E+01
  1.753823793580E+01  1.737093753762E+01  1.718407054966E+01  1.698298540789E+01
  1.674273607998E+01  1.649500583459E+01  1.620687561962E+01  1.592346851977E+01
  1.560238204056E+01  1.530310927196E+01  1.497243236342E+01  1.460788571133E+01
  1.420700932503E+01  1.385853487750E+01  1.348409859850E+01  1.308260536036E+01
  1.265306667587E+01  1.219463258551E+01  1.170662623321E+01  1.132092477080E+01
  1.091821386336E+01  1.049847388946E+01  1.006178199377E+01  9.608320968645E+00
  9.138387703100E+00  8.652400992774E+00  8.150908494577E+00  7.634592606123E+00
  7.104275053323E+00  6.560919980799E+00  6.191981426783E+00  5.818101664851E+00
  5.439672554934E+00  5.057113600416E+00  4.670871320010E+00  4.281418437931E+00
  3.889252893450E+00  3.494896673116E+00  3.098894471084E+00  2.701812185144E+00
  2.304235258032E+00  1.906766875479E+00  1.510026034043E+00  1.114645493137E+00
  7.212696266253E-01  3.305521899950E-01 -5.684598072474E-02 -4.402593224243E-01
 -8.190199356610E-01 -1.192459998913E+00 -1.559914194384E+00 -1.920722135765E+00
 -2.274230791211E+00 -2.619796898171E+00 -2.956789370485E+00 -3.284591702409E+00
 -3.602604378784E+00 -3.910247305392E+00 -4.206962278568E+00 -4.351053951282E+00
 -4.492215518239E+00 -4.630384503774E+00 -4.765500293523E+00 -4.897504223964E+00
 -5.026339674851E+00 -5.151952164867E+00 -5.274289450837E+00 -5.393301630866E+00
 -5.508941251754E+00 -5.621163421041E+00 -5.729925924054E+00 -5.835189346291E+00
 -5.936917201496E+00 -6.035076065734E+00 -6.129635717766E+00 -6.220569286005E+00
 -6.307853402251E+00 -6.391468362421E+00 -6.471398294360E+00 -6.547631332823E+00
 -6.620159801570E+00 -6.688980402476E+00 -6.754094411427E+00 -6.815507880652E+00
 -6.873231847019E+00 -6.927282545645E+00 -6.977681628039E+00 -7.024456383762E+00
 -7.067639964422E+00 -7.107271608580E+00 -7.143396865889E+00 -7.176067818564E+00
 -7.205343297956E+00 -7.231289093757E+00 -7.253978153016E+00 -7.273490765871E+00
 -7.289914734545E+00 -7.303345521849E+00 -7.313886375110E+00 -7.321648421143E+00
 -7.326750727552E+00 -7.329320325453E+00 -7.329492188391E+00 -7.327409162127E+00
 -7.323221839778E+00 -7.317088376786E+00 -7.309174240205E+00 -7.299651886923E+00
 -7.288700365696E+00 -7.276504838222E+00 -7.263256015012E+00 -7.249149502437E+00
 -7.234385058186E+00 -7.219165753314E+00 -7.203697040208E+00 -7.188185727117E+00
 -7.172838861346E+00 -7.157862524811E+00 -7.143460547400E+00 -7.129833145414E+00
 -7.117175494245E+00 -7.105676246417E+00 -7.095516007985E+00 -7.086865788196E+00
 -7.079885439011E+00 -7.074722102692E+00 -7.071508686965E+00 -7.070362388359E+00
 -7.071383285000E+00 -7.074653020524E+00 -7.080233600633E+00 -7.088166323316E+00
 -7.098470862757E+00 -7.111144525465E+00 -7.126161695258E+00 -7.143473481405E+00
 -7.163007581486E+00 -7.184668367542E+00 -7.208337200776E+00 -7.233872976663E+00
 -7.261112898814E+00 -7.289873476469E+00 -7.319951737132E+00 -7.351126642719E+00
 -7.383160694745E+00 -7.415801711547E+00 -7.448784758532E+00 -7.481834210753E+00