<?xml version="1.0" encoding="UTF-8" ?>
<psml version="1.1" energy_unit="hartree" length_unit="bohr"
 uuid="bbe30890-23d3-11e8-5260-487e7afe10aa"
 xmlns="http://esl.cecam.org/PSML/ns/1.1">
<provenance creator="ONCVPSP-3.3.0+psml-3.3.0-73 (scalar-relativistic)"
 date="2018-03-09">
<annotation action="semilocal-pseudopotential-generation"
 action-cont="projectors-generation" />
<input-file name="oncvpsp-input">
<![CDATA[# atsym z nc nv iexc psfile
Ir 77 10 4 -001012 upf
# n l f
1 0 2.0
2 0 2.0
2 1 6.0
3 0 2.0
3 1 6.0
3 2 10.0
4 0 2.0
4 1 6.0
4 2 10.0
4 3 14.0
5 0 2.0
5 1 6.0
5 2 7.0
6 0 2.0
# lmax
3
# l rc ep ncon nbas qcut
0 1.65 0.0 4 8 8.1
1 1.65 0.0 4 8 8.1
2 1.5 0.0 4 8 8.4
3 2.25 0.5 4 8 6.8
# lloc lpopt rc5 dvloc0
4 5 1.5 0.0
# l nproj debl
0 2 1.2
1 2 2.5
2 2 1.0
3 2 3.0
# icmod fcfact rcfact
3 5.0 1.35
# epsh1 epsh2 depsh
-100.0 22.0 0.02
# rlmax drl
5.0 0.01
 0
]]>
</input-file>
</provenance>
<pseudo-atom-spec atomic-label="Ir" atomic-number="77" z-pseudo="17"
 flavor="Hamann&apos;s oncvpsp" relativity="scalar" spin-dft="no"
 core-corrections="yes">
<annotation pseudo-energy="-106.461118548" />
<exchange-correlation>
<annotation oncvpsp-xc-code="-1012" oncvpsp-xc-type="libxc-interface" />
<libxc-info number-of-functionals="2">
<functional name="Slater exchange (LDA)" type="exchange" id="1" />
<functional name="Perdew &amp; Wang (LDA)" type="correlation" id="12" />
</libxc-info>
</exchange-correlation>
<valence-configuration total-valence-charge="17">
<shell n="5" l="s" occupation="2" />
<shell n="5" l="p" occupation="6" />
<shell n="5" l="d" occupation="7" />
<shell n="6" l="s" occupation="2" />
</valence-configuration>
</pseudo-atom-spec>
<grid npts="457">
<annotation type="sampled from oncvpsp log grid"
 recipe="r(i:1..N) = r1*exp(a*(i-1)) + r=0; resampled"
 recipe-cont="r1: scale; a: step" scale="0.649350649351E-05"
 step="0.119285708653E-01" delta="0.500000000000E-02" rmax="44.2155744394" />
<grid-data>
  0.000000000000E+00  5.048998669752E-03  1.008497861164E-02  1.512907607261E-02
  2.014395333605E-02  2.526820806223E-02  3.058177187380E-02  3.571159986911E-02
  4.071879753945E-02  4.587753439355E-02  5.107691777807E-02  5.619126148361E-02
  6.181770561879E-02  6.720111355653E-02  7.305333671047E-02  7.847351971603E-02
  8.429585250881E-02  8.947645508006E-02  9.497544393250E-02  1.008123862541E-01
  1.070080517809E-01  1.122376350817E-01  1.177227929962E-01  1.234760156942E-01
  1.295104037517E-01  1.358396979821E-01  1.424783107250E-01  1.476693267439E-01
  1.530494708284E-01  1.586256336191E-01  1.644049568082E-01  1.703948422864E-01
  1.766029616229E-01  1.830372658906E-01  1.897059958500E-01  1.966176925027E-01
  2.037812080314E-01  2.112057171363E-01  2.163050679708E-01  2.215275375319E-01
  2.268760983981E-01  2.323537949178E-01  2.379637449423E-01  2.437091416002E-01
  2.495932551150E-01  2.556194346665E-01  2.617911102971E-01  2.681117948641E-01
  2.745850860393E-01  2.812146683566E-01  2.880043153094E-01  2.949578914983E-01
  3.020793548306E-01  3.093727587736E-01  3.168422546615E-01  3.244920940580E-01
  3.323266311769E-01  3.403503253601E-01  3.485677436156E-01  3.569835632174E-01
  3.656025743677E-01  3.744296829233E-01  3.834699131878E-01  3.927284107718E-01
  4.022104455215E-01  4.119214145181E-01  4.218668451502E-01  4.269292472921E-01
  4.320523982596E-01  4.372370270387E-01  4.424838713631E-01  4.477936778195E-01
  4.531672019533E-01  4.586052083768E-01  4.641084708773E-01  4.696777725278E-01
  4.753139057981E-01  4.810176726677E-01  4.867898847397E-01  4.926313633566E-01
  4.985429397169E-01  5.045254549935E-01  5.105797604534E-01  5.167067175789E-01
  5.229071981898E-01  5.291820845681E-01  5.355322695829E-01  5.419586568179E-01
  5.484621606997E-01  5.550437066281E-01  5.617042311076E-01  5.684446818809E-01
  5.752660180635E-01  5.821692102803E-01  5.891552408036E-01  5.962251036933E-01
  6.033798049376E-01  6.106203625968E-01  6.179478069480E-01  6.253631806314E-01
  6.328675387990E-01  6.404619492646E-01  6.481474926557E-01  6.559252625676E-01
  6.637963657184E-01  6.717619221070E-01  6.798230651723E-01  6.879809419544E-01
  6.962367132578E-01  7.045915538169E-01  7.130466524627E-01  7.216032122923E-01
  7.302624508398E-01  7.390256002499E-01  7.478939074529E-01  7.568686343423E-01
  7.659510579544E-01  7.751424706499E-01  7.844441802977E-01  7.938575104612E-01
  8.033838005868E-01  8.130244061938E-01  8.227806990681E-01  8.326540674569E-01
  8.426459162664E-01  8.527576672616E-01  8.629907592688E-01  8.733466483800E-01
  8.838268081606E-01  8.944327298585E-01  9.051659226168E-01  9.160279136882E-01
  9.270202486524E-01  9.381444916363E-01  9.494022255359E-01  9.607950522423E-01
  9.723245928692E-01  9.839924879837E-01  9.958003978395E-01  1.007750002614E+00
  1.019843002645E+00  1.032081118677E+00  1.044466092101E+00  1.056999685206E+00
  1.069683681428E+00  1.082519885606E+00  1.095510124233E+00  1.108656245724E+00
  1.121960120672E+00  1.135423642120E+00  1.149048725826E+00  1.162837310536E+00
  1.176791358262E+00  1.190912854561E+00  1.205203808816E+00  1.219666254522E+00
  1.234302249576E+00  1.249113876571E+00  1.264103243090E+00  1.279272482007E+00
  1.294623751791E+00  1.310159236813E+00  1.325881147654E+00  1.341791721426E+00
  1.357893222083E+00  1.374187940748E+00  1.390678196037E+00  1.407366334390E+00
  1.424254730402E+00  1.441345787167E+00  1.458641936613E+00  1.476145639853E+00
  1.493859387531E+00  1.511785700181E+00  1.529927128583E+00  1.548286254126E+00
  1.566865689176E+00  1.585668077446E+00  1.604696094375E+00  1.623952447508E+00
  1.643439876878E+00  1.663161155400E+00  1.683119089265E+00  1.703316518336E+00
  1.723756316556E+00  1.744441392355E+00  1.765374689063E+00  1.786559185332E+00
  1.807997895556E+00  1.829693870303E+00  1.851650196746E+00  1.873869999107E+00
  1.896356439097E+00  1.919112716366E+00  1.942142068962E+00  1.965447773790E+00
  1.989033147075E+00  2.012901544840E+00  2.037056363378E+00  2.061501039739E+00
  2.086239052216E+00  2.111273920842E+00  2.136609207892E+00  2.162248518387E+00
  2.188195500608E+00  2.214453846615E+00  2.241027292774E+00  2.267919620288E+00
  2.295134655731E+00  2.322676271600E+00  2.350548386859E+00  2.378754967501E+00
  2.407300027111E+00  2.436187627437E+00  2.465421878966E+00  2.495006941514E+00
  2.524947024812E+00  2.555246389110E+00  2.585909345779E+00  2.616940257928E+00
  2.648343541023E+00  2.680123663516E+00  2.712285147478E+00  2.744832569248E+00
  2.777770560079E+00  2.811103806799E+00  2.844837052481E+00  2.878975097111E+00
  2.913522798276E+00  2.948485071855E+00  2.983866892718E+00  3.019673295430E+00
  3.055909374976E+00  3.092580287475E+00  3.129691250925E+00  3.167247545936E+00
  3.205254516487E+00  3.243717570685E+00  3.282642181533E+00  3.322033887712E+00
  3.361898294364E+00  3.402241073897E+00  3.443067966783E+00  3.484384782385E+00
  3.526197399773E+00  3.568511768571E+00  3.611333909794E+00  3.654669916711E+00
  3.698525955712E+00  3.742908267180E+00  3.787823166386E+00  3.833277044383E+00
  3.879276368916E+00  3.925827685342E+00  3.972937617567E+00  4.020612868977E+00
  4.068860223405E+00  4.117686546086E+00  4.167098784639E+00  4.217103970055E+00
  4.267709217695E+00  4.318921728308E+00  4.370748789047E+00  4.423197774516E+00
  4.476276147810E+00  4.529991461584E+00  4.584351359123E+00  4.639363575432E+00
  4.695035938338E+00  4.751376369598E+00  4.808392886033E+00  4.866093600665E+00
  4.924486723873E+00  4.983580564560E+00  5.043383531334E+00  5.103904133710E+00
  5.165150983315E+00  5.227132795115E+00  5.289858388656E+00  5.353336689320E+00
  5.417576729592E+00  5.482587650347E+00  5.548378702151E+00  5.614959246577E+00
  5.682338757536E+00  5.750526822626E+00  5.819533144498E+00  5.889367542232E+00
  5.960039952738E+00  6.031560432171E+00  6.103939157357E+00  6.177186427246E+00
  6.251312664373E+00  6.326328416345E+00  6.402244357341E+00  6.479071289629E+00
  6.556820145105E+00  6.635501986846E+00  6.715128010688E+00  6.795709546817E+00
  6.877258061378E+00  6.959785158115E+00  7.043302580012E+00  7.127822210972E+00
  7.213356077504E+00  7.299916350434E+00  7.387515346639E+00  7.476165530799E+00
  7.565879517169E+00  7.656670071375E+00  7.748550112231E+00  7.841532713578E+00
  7.935631106141E+00  8.030858679414E+00  8.127228983567E+00  8.224755731370E+00
  8.323452800147E+00  8.423334233748E+00  8.524414244553E+00  8.626707215488E+00
  8.730227702074E+00  8.834990434499E+00  8.941010319713E+00  9.048302443549E+00
  9.156882072872E+00  9.266764657746E+00  9.377965833639E+00  9.490501423643E+00
  9.604387440727E+00  9.719640090015E+00  9.836275771096E+00  9.954311080349E+00
  1.007376281331E+01  1.019464796707E+01  1.031698374268E+01  1.044078754759E+01
  1.056607699816E+01  1.069286992214E+01  1.082118436120E+01  1.095103857354E+01
  1.108245103642E+01  1.121544044886E+01  1.135002573424E+01  1.148622604306E+01
  1.162406075557E+01  1.176354948464E+01  1.190471207845E+01  1.204756862340E+01
  1.219213944688E+01  1.233844512024E+01  1.248650646168E+01  1.263634453922E+01
  1.278798067369E+01  1.294143644178E+01  1.309673367908E+01  1.325389448323E+01
  1.341294121703E+01  1.357389651163E+01  1.373678326977E+01  1.390162466901E+01
  1.406844416504E+01  1.423726549502E+01  1.440811268096E+01  1.458101003313E+01
  1.475598215353E+01  1.493305393937E+01  1.511225058664E+01  1.529359759368E+01
  1.547712076480E+01  1.566284621398E+01  1.585080036855E+01  1.604100997297E+01
  1.623350209265E+01  1.642830411776E+01  1.662544376717E+01  1.682494909238E+01
  1.702684848149E+01  1.723117066327E+01  1.743794471122E+01  1.764720004776E+01
  1.785896644833E+01  1.807327404571E+01  1.829015333426E+01  1.850963517427E+01
  1.873175079636E+01  1.895653180592E+01  1.918401018759E+01  1.941421830984E+01
  1.964718892956E+01  1.988295519671E+01  2.012155065907E+01  2.036300926698E+01
  2.060736537819E+01  2.085465376273E+01  2.110490960788E+01  2.135816852317E+01
  2.161446654545E+01  2.187384014400E+01  2.213632622572E+01  2.240196214043E+01
  2.267078568612E+01  2.294283511435E+01  2.321814913572E+01  2.349676692535E+01
  2.377872812846E+01  2.406407286600E+01  2.435284174039E+01  2.464507584128E+01
  2.494081675137E+01  2.524010655239E+01  2.554298783102E+01  2.584950368499E+01
  2.615969772921E+01  2.647361410196E+01  2.679129747118E+01  2.711279304084E+01
  2.743814655733E+01  2.776740431601E+01  2.810061316781E+01  2.843782052582E+01
  2.877907437213E+01  2.912442326459E+01  2.947391634377E+01  2.982760333990E+01
  3.018553457997E+01  3.054776099493E+01  3.091433412687E+01  3.128530613640E+01
  3.166072981003E+01  3.204065856775E+01  3.242514647057E+01  3.281424822821E+01
  3.320801920695E+01  3.360651543743E+01  3.400979362268E+01  3.441791114616E+01
  3.483092607991E+01  3.524889719287E+01  3.567188395918E+01  3.609994656669E+01
  3.653314592549E+01  3.697154367660E+01  3.741520220072E+01  3.786418462713E+01
  3.831855484265E+01  3.877837750076E+01  3.924371803077E+01  3.971464264714E+01
  4.019121835891E+01  4.067351297922E+01  4.116159513497E+01  4.165553427659E+01
  4.215540068790E+01  4.266126549616E+01  4.317320068211E+01  4.369127909030E+01
  4.421557443938E+01
</grid-data>
</grid>
<valence-charge total-charge="17" is-unscreening-charge="yes"
 rescaled-to-z-pseudo="no">
<radfunc>
<data npts="457">
  3.650489513867E+00  3.651717215261E+00  3.655387300640E+00  3.661510552772E+00
  3.670024578484E+00  3.681220697310E+00  3.695491784161E+00  3.711835855241E+00
  3.730216115232E+00  3.751654529485E+00  3.775824578149E+00  3.802102059121E+00
  3.833868555636E+00  3.867055374580E+00  3.906216947447E+00  3.945340450948E+00
  3.990407479545E+00  4.033140955500E+00  4.081198254284E+00  4.135229200534E+00
  4.195959150789E+00  4.249906749070E+00  4.309113121288E+00  4.374074114304E+00
  4.445328567188E+00  4.523461157173E+00  4.609105207197E+00  4.678677505338E+00
  4.753167621753E+00  4.832901719198E+00  4.918223959694E+00  5.009496838113E+00
  5.107101378128E+00  5.211437154360E+00  5.322922097877E+00  5.441992034613E+00
  5.569099897484E+00  5.704714543000E+00  5.800088351151E+00  5.899603652187E+00
  6.003408700588E+00  6.111653344695E+00  6.224488521727E+00  6.342065670532E+00
  6.464536052967E+00  6.592049974109E+00  6.724755890687E+00  6.862799396375E+00
  7.006322071801E+00  7.155460186352E+00  7.310343238141E+00  7.471092317825E+00
  7.637818281367E+00  7.810619716377E+00  7.989580686376E+00  8.174768237217E+00
  8.366229650098E+00  8.563989426135E+00  8.768045988397E+00  8.978368088770E+00
  9.194890909149E+00  9.417511849201E+00  9.646085996737E+00  9.880421281383E+00
  1.012027331817E+01  1.036533995496E+01  1.061525554629E+01  1.074189861017E+01
  1.086958498693E+01  1.099824842429E+01  1.112781755068E+01  1.125821567640E+01
  1.138936059458E+01  1.152116438265E+01  1.165353320527E+01  1.178636711952E+01
  1.191955988362E+01  1.205299877011E+01  1.218656438494E+01  1.232013049364E+01
  1.245356385626E+01  1.258672407241E+01  1.271946343834E+01  1.285162681774E+01
  1.298305152824E+01  1.311356724570E+01  1.324299592843E+01  1.337115176368E+01
  1.349784113888E+01  1.362286264002E+01  1.374600707997E+01  1.386705755942E+01
  1.398578956323E+01  1.410197109519E+01  1.421536285410E+01  1.432571845418E+01
  1.443278469286E+01  1.453630186899E+01  1.463600415437E+01  1.473162002174E+01
  1.482287273179E+01  1.490948088211E+01  1.499115902043E+01  1.506761832457E+01
  1.513856735092E+01  1.520371285337E+01  1.526276067361E+01  1.531541670398E+01
  1.536138792284E+01  1.540038350242E+01  1.543211598800E+01  1.545630254688E+01
  1.547266628462E+01  1.548093762529E+01  1.548085575141E+01  1.547217009849E+01
  1.545464189796E+01  1.542804576109E+01  1.539217129573E+01  1.534682474624E+01
  1.529183064615E+01  1.522703347186E+01  1.515229928461E+01  1.506751734706E+01
  1.497260169979E+01  1.486749268221E+01  1.475215838173E+01  1.462659599441E+01
  1.449083307999E+01  1.434492869395E+01  1.418897437932E+01  1.402309500137E+01
  1.384744940843E+01  1.366223090360E+01  1.346766751239E+01  1.326402203340E+01
  1.305159186028E+01  1.283070856554E+01  1.260173723866E+01  1.236507557336E+01
  1.212115270173E+01  1.187042777536E+01  1.161338829657E+01  1.135054820569E+01
  1.108244573339E+01  1.080964102953E+01  1.053271358312E+01  1.025225945021E+01
  9.968888308925E+00  9.683220363020E+00  9.395883116881E+00  9.107508046480E+00
  8.818727191828E+00  8.530169697299E+00  8.242458326638E+00  7.956205979777E+00
  7.672012238517E+00  7.390459968063E+00  7.112112001110E+00  6.837507930874E+00
  6.567161039185E+00  6.301555385450E+00  6.041143082080E+00  5.786341781770E+00
  5.537532401834E+00  5.295057110522E+00  5.059217599880E+00  4.830273669033E+00
  4.608442140748E+00  4.393896132620E+00  4.186764702029E+00  3.987132881154E+00
  3.795042114612E+00  3.610491107735E+00  3.433437643453E+00  3.263803092410E+00
  3.101478581834E+00  2.946328306620E+00  2.798191670354E+00  2.656886339867E+00
  2.522211036252E+00  2.393948377501E+00  2.271868355089E+00  2.155734230836E+00
  2.045309479755E+00  1.940358930144E+00  1.840649888621E+00  1.745953049576E+00
  1.656043317299E+00  1.570700511383E+00  1.489709968111E+00  1.412863043686E+00
  1.339957525983E+00  1.270797961529E+00  1.205195904399E+00  1.142970093711E+00
  1.083946565905E+00  1.027958708740E+00  9.748472624861E-01  9.244602745099E-01
  8.766530127820E-01  8.312878436131E-01  7.882340786296E-01  7.473677956769E-01
  7.085716380193E-01  6.717345958797E-01  6.367517740388E-01  6.035241488947E-01
  5.719583180696E-01  5.419662453441E-01  5.134650034104E-01  4.863765166496E-01
  4.606273058735E-01  4.361482367186E-01  4.128742731392E-01  3.907442372289E-01
  3.697005763913E-01  3.496891386902E-01  3.306589570392E-01  3.125620427289E-01
  2.953531886487E-01  2.789897824322E-01  2.634316296405E-01  2.486407869976E-01
  2.345814056034E-01  2.212195839758E-01  2.085232307066E-01  1.964619364631E-01
  1.850068550210E-01  1.741305929810E-01  1.638071077888E-01  1.540116136624E-01
  1.447204950130E-01  1.359112269374E-01  1.275623023566E-01  1.196531653777E-01
  1.121641504562E-01  1.050764269498E-01  9.837194865896E-02  9.203340796845E-02
  8.604419421329E-02  8.038835591258E-02  7.505056652981E-02  7.001609343686E-02
  6.527076977719E-02  6.080096894249E-02  5.659358139657E-02  5.263599359296E-02
  4.891606876596E-02  4.542212937246E-02  4.214294099416E-02  3.906769752047E-02
  3.618600744933E-02  3.348788115799E-02  3.096371901057E-02  2.860430018243E-02
  2.640077209432E-02  2.434464036104E-02  2.242775917051E-02  2.064232201949E-02
  1.898085274159E-02  1.743619677214E-02  1.600151260245E-02  1.467026338343E-02
  1.343620864521E-02  1.229339610547E-02  1.123615354474E-02  1.025908073202E-02
  9.357041388040E-03  8.525155178031E-03  7.758789728889E-03  7.053552668875E-03
  6.405283690624E-03  5.810046640527E-03  5.264121639485E-03  4.763997241688E-03
  4.306362639409E-03  3.888099922880E-03  3.506276405140E-03  3.158137022353E-03
  2.841096820485E-03  2.552733539432E-03  2.290780305733E-03  2.053118444874E-03
  1.837770423938E-03  1.642892934970E-03  1.466770128947E-03  1.307807009643E-03
  1.164522996044E-03  1.035545661213E-03  9.196046547276E-04  8.155258150040E-04
  7.222254769244E-04  6.387049793447E-04  5.640453761403E-04  4.974023535676E-04
  4.380013558302E-04  3.851329198682E-04  3.381482195453E-04  2.964548185876E-04
  2.595126308467E-04  2.268300857220E-04  1.979604958767E-04  1.724986237415E-04
  1.500774427009E-04  1.303650883194E-04  1.130619944834E-04  9.789820890345E-05
  8.463088205665E-05  7.304192333352E-05  6.293581789916E-05  5.413759757556E-05
  4.649095890351E-05  3.985652144353E-05  3.411021932492E-05  2.914181904557E-05
  2.485355656141E-05  2.115888677823E-05  1.798133866781E-05  1.525346937020E-05
  1.291591081255E-05  1.091650256621E-05  9.209504877037E-06  7.754886033243E-06
  6.517678478756E-06  5.467398334301E-06  4.577523250266E-06  3.825023782223E-06
  3.189943749091E-06  2.655025303045E-06  2.205374707279E-06  1.828165080680E-06
  1.512372625820E-06  1.248543106872E-06  1.028585586006E-06  8.455906594493E-07
  6.936706569609E-07  5.678194803173E-07  4.637899571485E-07  3.779867757884E-07
  3.073732445988E-07  2.493902854859E-07  2.018862261624E-07  1.630560993259E-07
  1.313892896251E-07  1.056244914191E-07  8.471105234055E-08  6.777587999935E-08
  5.409518231351E-08  4.307039645617E-08  3.420773778310E-08  2.710086890756E-08
  2.141625084985E-08  1.688079344335E-08  1.327147144341E-08  1.040661656457E-08
  8.138634444739E-09  6.347929761943E-09  4.937852842662E-09  3.830507508764E-09
  2.963282991612E-09  2.285992850871E-09  1.758521296914E-09  1.348892428750E-09
  1.031690937028E-09  7.867740320934E-10  5.982239648353E-10  4.534987150756E-10
  3.427454097986E-10  2.582469629892E-10  1.939774438536E-10  1.452459075834E-10
  1.084119743829E-10  8.065941620022E-11  5.981649207995E-11  4.421383672193E-11
  3.257241715078E-11  2.391548499353E-11  1.749961450110E-11  1.276087001584E-11
  9.272925923206E-12  6.714596802067E-12  4.844750506033E-12  3.482993320601E-12
  2.494851783314E-12  1.780445122618E-12  1.265856924366E-12  8.659769986626E-13
  6.114955656970E-13  4.301198221597E-13  3.013523997179E-13  2.102947879816E-13
  1.461606189975E-13  1.011717682337E-13  6.974197496073E-14  4.787553560000E-14
  3.272622071029E-14  2.227506108915E-14  1.509595367717E-14  1.018587390999E-14
  6.842413868311E-15  4.575837749453E-15  3.046202551462E-15  2.018599609576E-15
  1.331437894881E-15  8.740710696327E-16  5.710881779430E-16  3.713345631950E-16
  2.402748125532E-16  1.547057195748E-16  9.911377495638E-17  6.317789487504E-17
  4.006576288893E-17  2.527738489380E-17  1.586405948051E-17  9.903590127639E-18
  6.149495305274E-18  3.797753652658E-18  2.332524852414E-18  1.424653583486E-18
  8.652602657012E-19  5.225277645428E-19  3.137381907840E-19  1.872797106401E-19
  1.111345139463E-19  6.555581956262E-20  3.843673030810E-20  2.239870703353E-20
  1.297205694199E-20  7.465721686621E-21  4.269520193483E-21  2.426037706582E-21
  1.369599786634E-21  7.681278389395E-22  4.279397296376E-22  2.368132992360E-22
  1.301572627695E-22  7.104511375775E-23  0.000000000000E+00  0.000000000000E+00
  0.000000000000E+00  0.000000000000E+00  0.000000000000E+00  0.000000000000E+00
  0.000000000000E+00  0.000000000000E+00  0.000000000000E+00  0.000000000000E+00
  0.000000000000E+00  0.000000000000E+00  0.000000000000E+00  0.000000000000E+00
  0.000000000000E+00  0.000000000000E+00  0.000000000000E+00  0.000000000000E+00
  0.000000000000E+00
</data>
</radfunc>
</valence-charge>
<pseudocore-charge matching-radius="0.842645916266"
 number-of-continuous-derivatives="4">
<annotation model-charge-form="Teter function with specified parameters" />
<radfunc>
<data npts="275">
  7.977746053673E+01  7.977249535817E+01  7.975765272573E+01  7.973288996614E+01
  7.969846092065E+01  7.965318978031E+01  7.959549127199E+01  7.952942004640E+01
  7.945512815694E+01  7.936848953444E+01  7.927082968123E+01  7.916467614713E+01
  7.903637799905E+01  7.890237735485E+01  7.874429577745E+01  7.858641421195E+01
  7.840460387632E+01  7.823226179890E+01  7.803851038730E+01  7.782075058171E+01
  7.757608407292E+01  7.735882096412E+01  7.712046143483E+01  7.685902933910E+01
  7.657237859969E+01  7.625818183666E+01  7.591391896920E+01  7.563436025588E+01
  7.533513354744E+01  7.501494052067E+01  7.467241027611E+01  7.430609737142E+01
  7.391448018004E+01  7.349595965923E+01  7.304885862420E+01  7.257142163935E+01
  7.206181565258E+01  7.151813151567E+01  7.113576693948E+01  7.073677189226E+01
  7.032052834934E+01  6.988640592536E+01  6.943376281466E+01  6.896194689761E+01
  6.847029702795E+01  6.795814451756E+01  6.742481483532E+01  6.686962953778E+01
  6.629190845002E+01  6.569097211543E+01  6.506614453402E+01  6.441675620867E+01
  6.374214751936E+01  6.304167244485E+01  6.231470265144E+01  6.156063196712E+01
  6.077888125893E+01  5.996890372942E+01  5.913019064634E+01  5.826227751687E+01
  5.736475071455E+01  5.643725456301E+01  5.547949887580E+01  5.449126694556E+01
  5.347242396942E+01  5.242292588905E+01  5.134282861511E+01  5.079135243627E+01
  5.023229759514E+01  4.966570350544E+01  4.909161767218E+01  4.851009601090E+01
  4.792120316841E+01  4.732501284445E+01  4.672160811320E+01  4.611108174383E+01
  4.549353651912E+01  4.486908555094E+01  4.423785259166E+01  4.359997233995E+01
  4.295559074000E+01  4.230486527242E+01  4.164796523564E+01  4.098507201602E+01
  4.031637934507E+01  3.964209354214E+01  3.896243374061E+01  3.827763209567E+01
  3.758793397181E+01  3.689359810787E+01  3.619489675739E+01  3.549211580224E+01
  3.478555483701E+01  3.407552722198E+01  3.336236010212E+01  3.264639438969E+01
  3.192798470800E+01  3.120749929369E+01  3.048531985507E+01  2.976184138390E+01
  2.903747191818E+01  2.831263225331E+01  2.758775559925E+01  2.686328718132E+01
  2.613968378224E+01  2.541741322332E+01  2.469695378269E+01  2.397879354876E+01
  2.326342970711E+01  2.255136775949E+01  2.184312067361E+01  2.113920796276E+01
  2.044015469489E+01  1.974649043053E+01  1.905874809009E+01  1.837746275081E+01
  1.770317037451E+01  1.703640646777E+01  1.637770467641E+01  1.572759531707E+01
  1.508660384916E+01  1.445524929090E+01  1.383404258420E+01  1.322348491349E+01
  1.262406598461E+01  1.203626227025E+01  1.146053522964E+01  1.089732951041E+01
  1.034707114186E+01  9.810165729071E+00  9.286996658450E+00  8.777923325724E+00
  8.283279398227E+00  7.803371123823E+00  7.338475699449E+00  6.888839712678E+00
  6.454677670148E+00  6.036170626968E+00  5.633464931410E+00  5.246671099251E+00
  4.875862832056E+00  4.521076193435E+00  4.182308956923E+00  3.859520138545E+00
  3.552629726352E+00  3.261518618250E+00  2.986028778261E+00  2.725963619976E+00
  2.481088624362E+00  2.251132197253E+00  2.035786769877E+00  1.834710143505E+00
  1.647527076953E+00  1.473831113044E+00  1.313186637479E+00  1.165131160663E+00
  1.029177810166E+00  9.048180184691E-01  7.915243877185E-01  6.887537102167E-01
  5.959501205690E-01  5.125483526802E-01  4.379770723075E-01  3.716622536445E-01
  3.130305665114E-01  2.615127392139E-01  2.165468610747E-01  1.775815880829E-01
  1.440792151119E-01  1.155185787550E-01  9.139775606776E-02  7.123652640273E-02
  5.457856608703E-02  4.099334892780E-02  3.007772940688E-02  2.145718991155E-02
  1.478673838379E-02  9.751448280840E-03  6.066638630677E-03  3.477698123228E-03
  1.759563473512E-03  7.158685805305E-04  1.777871305922E-04  2.597091570599E-06
  7.200084839587E-05  2.902393745647E-04  5.820426622396E-04  8.904615010202E-04
  1.174627479554E-03  1.407488688359E-03  1.573567962844E-03  1.666788597000E-03
  1.688409297492E-03  1.645105797446E-03  1.547231118569E-03  1.407280115086E-03
  1.238576852882E-03  1.054195809980E-03  8.661200991137E-04  6.846321997744E-04
  5.179253453642E-04  3.719170365474E-04  2.502404214228E-04  1.543847401252E-04
  8.395287105677E-05  3.700237206948E-05  1.043634439289E-05  4.119421311578E-07
  2.737305042175E-06  1.323192490574E-05  2.803070932659E-05  4.381796210835E-05
  5.798379205979E-05  6.870170451516E-05  7.493193572206E-05  7.636010141773E-05
  7.328464363670E-05  6.646914868908E-05  5.697674665866E-05  4.600347145607E-05
  3.472575795789E-05  2.417438619881E-05  1.514345363477E-05  8.138736978221E-06
  3.365504776933E-06  7.518709764094E-07  5.094249337348E-10  6.592745600809E-07
  2.200181707338E-06  4.096350192281E-06  5.887825907824E-06  7.229469858716E-06
  7.917011634760E-06  7.890537585858E-06  7.217704805557E-06  6.061463646711E-06
  4.638730532423E-06  3.177094948137E-06  1.876230126292E-06  8.793177936868E-07
  2.577410899263E-07  9.893533456351E-09  0.000000000000E+00  0.000000000000E+00
  0.000000000000E+00  0.000000000000E+00  0.000000000000E+00  0.000000000000E+00
  0.000000000000E+00  0.000000000000E+00  0.000000000000E+00  0.000000000000E+00
  0.000000000000E+00  0.000000000000E+00  0.000000000000E+00  0.000000000000E+00
  0.000000000000E+00  0.000000000000E+00  0.000000000000E+00  0.000000000000E+00
  0.000000000000E+00  0.000000000000E+00  0.000000000000E+00  0.000000000000E+00
  0.000000000000E+00  0.000000000000E+00  0.000000000000E+00  0.000000000000E+00
  0.000000000000E+00  0.000000000000E+00  0.000000000000E+00  0.000000000000E+00
  0.000000000000E+00  0.000000000000E+00  0.000000000000E+00
</data>
</radfunc>
</pseudocore-charge>
<semilocal-potentials set="scalar_relativistic">
<slps n="5" l="s" rc="1.66316115540" eref="-3.61237570582">
<radfunc>
<data npts="275">
 -1.221468854890E+01 -1.221560160473E+01 -1.221833046112E+01 -1.222288126012E+01
 -1.222920455088E+01 -1.223751214987E+01 -1.224808880553E+01 -1.226018450275E+01
 -1.227376510535E+01 -1.228957592922E+01 -1.230736354957E+01 -1.232665683581E+01
 -1.234991752632E+01 -1.237414526268E+01 -1.240263940471E+01 -1.243100328604E+01
 -1.246354985265E+01 -1.249428709538E+01 -1.252871033493E+01 -1.256723259826E+01
 -1.261030558088E+01 -1.264836968714E+01 -1.268993117020E+01 -1.273527793851E+01
 -1.278471480214E+01 -1.283856301477E+01 -1.289715942280E+01 -1.294443346169E+01
 -1.299472840864E+01 -1.304820041110E+01 -1.310500824262E+01 -1.316531243465E+01
 -1.322927424293E+01 -1.329705443197E+01 -1.336881186103E+01 -1.344470185519E+01
 -1.352487434575E+01 -1.360947176522E+01 -1.366839428904E+01 -1.372937893610E+01
 -1.379245917810E+01 -1.385766524530E+01 -1.392502370027E+01 -1.399455698697E+01
 -1.406628295540E+01 -1.414021436241E+01 -1.421635834940E+01 -1.429471589781E+01
 -1.437528126391E+01 -1.445804139428E+01 -1.454297532396E+01 -1.463005355943E+01
 -1.471923744893E+01 -1.481047854293E+01 -1.490371794783E+01 -1.499888567630E+01
 -1.509589999778E+01 -1.519466679319E+01 -1.529507891778E+01 -1.539701557624E+01
 -1.550034171469E+01 -1.560490743356E+01 -1.571054742604E+01 -1.581708044620E+01
 -1.592430881118E+01 -1.603201794137E+01 -1.613997594248E+01 -1.619397097556E+01
 -1.624793323314E+01 -1.630182870084E+01 -1.635562222115E+01 -1.640927748625E+01
 -1.646275703160E+01 -1.651602223045E+01 -1.656903328931E+01 -1.662174924423E+01
 -1.667412795815E+01 -1.672612611904E+01 -1.677769923918E+01 -1.682880165528E+01
 -1.687938652964E+01 -1.692940585236E+01 -1.697881044445E+01 -1.702754996214E+01
 -1.707557290208E+01 -1.712282660772E+01 -1.716925727670E+01 -1.721480996945E+01
 -1.725942861881E+01 -1.730305604090E+01 -1.734563394714E+01 -1.738710295760E+01
 -1.742740261547E+01 -1.746647140302E+01 -1.750424675886E+01 -1.754066509671E+01
 -1.757566182562E+01 -1.760917137186E+01 -1.764112720250E+01 -1.767146185080E+01
 -1.770010694351E+01 -1.772699323020E+01 -1.775205061486E+01 -1.777520818977E+01
 -1.779639427198E+01 -1.781553644251E+01 -1.783256158845E+01 -1.784739594831E+01
 -1.785996516082E+01 -1.787019431744E+01 -1.787800801897E+01 -1.788333043654E+01
 -1.788608537739E+01 -1.788619635582E+01 -1.788358666986E+01 -1.787817948392E+01
 -1.786989791827E+01 -1.785866514558E+01 -1.784440449537E+01 -1.782703956695E+01
 -1.780649435154E+01 -1.778269336432E+01 -1.775556178735E+01 -1.772502562402E+01
 -1.769101186611E+01 -1.765344867433E+01 -1.761226557345E+01 -1.756739366296E+01
 -1.751876584447E+01 -1.746631706690E+01 -1.740998459064E+01 -1.734970827191E+01
 -1.728543086832E+01 -1.721709836686E+01 -1.714466033541E+01 -1.706807029865E+01
 -1.698728613933E+01 -1.690227052553E+01 -1.681299136451E+01 -1.671942228324E+01
 -1.662154313571E+01 -1.651934053639E+01 -1.641280841906E+01 -1.630194861947E+01
 -1.618677147988E+01 -1.606729647269E+01 -1.594355283981E+01 -1.581558024346E+01
 -1.568342942347E+01 -1.554716285502E+01 -1.540685540036E+01 -1.526259494704E+01
 -1.511448302473E+01 -1.496263539248E+01 -1.480718258827E+01 -1.464827043325E+01
 -1.448606048441E+01 -1.432073043138E+01 -1.415247443642E+01 -1.398150342102E+01
 -1.380804530880E+01 -1.363234524253E+01 -1.345466580318E+01 -1.327528727209E+01
 -1.309450799250E+01 -1.291264490541E+01 -1.273003435625E+01 -1.254703329273E+01