<?xml version="1.0" encoding="UTF-8" ?>
<psml version="1.1" energy_unit="hartree" length_unit="bohr"
 uuid="57046410-23d2-11e8-5b79-ea20bb7fb244"
 xmlns="http://esl.cecam.org/PSML/ns/1.1">
<provenance creator="ONCVPSP-3.3.0+psml-3.3.0-73 (scalar-relativistic)"
 date="2018-03-09">
<annotation action="semilocal-pseudopotential-generation"
 action-cont="projectors-generation" />
<input-file name="oncvpsp-input">
<![CDATA[# atsym z nc nv iexc psfile
K 19 3 3 -001012 upf
# n l f
1 0 2.0
2 0 2.0
2 1 6.0
3 0 2.0
3 1 6.0
4 0 1.0
# lmax
2
# l rc ep ncon nbas qcut
0 1.35 0.0 4 8 8.2
1 1.45 0.0 4 8 8.6
2 1.6 0.05 4 8 8.2
# lloc lpopt rc5 dvloc0
4 5 1.1 0.0
# l nproj debl
0 2 1.0
1 2 0.8
2 2 0.5
# icmod fcfact rcfact
3 5.0 1.4
# epsh1 epsh2 depsh
-12.0 12.0 0.02
# rlmax drl
4.0 0.01
 0
]]>
</input-file>
</provenance>
<pseudo-atom-spec atomic-label="K" atomic-number="19" z-pseudo="9"
 flavor="Hamann&apos;s oncvpsp" relativity="scalar" spin-dft="no"
 core-corrections="yes">
<annotation pseudo-energy="-28.3924397087" />
<exchange-correlation>
<annotation oncvpsp-xc-code="-1012" oncvpsp-xc-type="libxc-interface" />
<libxc-info number-of-functionals="2">
<functional name="Slater exchange (LDA)" type="exchange" id="1" />
<functional name="Perdew &amp; Wang (LDA)" type="correlation" id="12" />
</libxc-info>
</exchange-correlation>
<valence-configuration total-valence-charge="9">
<shell n="3" l="s" occupation="2" />
<shell n="3" l="p" occupation="6" />
<shell n="4" l="s" occupation="1" />
</valence-configuration>
</pseudo-atom-spec>
<grid npts="458">
<annotation type="sampled from oncvpsp log grid"
 recipe="r(i:1..N) = r1*exp(a*(i-1)) + r=0; resampled"
 recipe-cont="r1: scale; a: step" scale="0.263157894737E-04"
 step="0.119285708653E-01" delta="0.500000000000E-02" rmax="44.3805247454" />
<grid-data>
  0.000000000000E+00  5.007741529749E-03  1.012260156078E-02  1.518551649569E-02
  2.021910222441E-02  2.536247345865E-02  3.069586001339E-02  3.584482530836E-02
  4.087070279455E-02  4.604868479549E-02  5.126746496251E-02  5.640088820213E-02
  6.204832230958E-02  6.745181355051E-02  7.245639225921E-02  7.783228504730E-02
  8.360704151557E-02  8.874531156514E-02  9.419936624988E-02  9.998861286736E-02
  1.061336514369E-01  1.113205019773E-01  1.167608387415E-01  1.224670498379E-01
  1.284521287929E-01  1.347297041389E-01  1.413140704474E-01  1.464626688527E-01
  1.517988498918E-01  1.573294478995E-01  1.630615462106E-01  1.690024862325E-01
  1.751598768472E-01  1.815416041568E-01  1.881558415833E-01  1.950110603372E-01
  2.021160402665E-01  2.094798811020E-01  2.145375633513E-01  2.197173582809E-01
  2.250222141792E-01  2.304551505184E-01  2.360192596725E-01  2.417177086780E-01
  2.475537410363E-01  2.535306785599E-01  2.596519232631E-01  2.659209592983E-01
  2.723413549396E-01  2.789167646133E-01  2.856509309781E-01  2.925476870557E-01
  2.996109584119E-01  3.068447653918E-01  3.142532254075E-01  3.218405552817E-01
  3.296110736484E-01  3.375692034106E-01  3.457194742577E-01  3.540665252442E-01
  3.626151074297E-01  3.713700865835E-01  3.803364459540E-01  3.895192891051E-01
  3.989238428212E-01  4.085554600823E-01  4.184196231105E-01  4.234406585878E-01
  4.285219464909E-01  4.336642098488E-01  4.388681803670E-01  4.441345985314E-01
  4.494642137138E-01  4.548577842783E-01  4.603160776897E-01  4.658398706219E-01
  4.714299490694E-01  4.770871084582E-01  4.828121537597E-01  4.886058996048E-01
  4.944691704001E-01  5.004028004449E-01  5.064076340502E-01  5.124845256588E-01
  5.186343399668E-01  5.248579520464E-01  5.311562474709E-01  5.375301224406E-01
  5.439804839099E-01  5.505082497168E-01  5.571143487134E-01  5.637997208979E-01
  5.705653175487E-01  5.774121013593E-01  5.843410465756E-01  5.913531391345E-01
  5.984493768041E-01  6.056307693258E-01  6.128983385577E-01  6.202531186204E-01
  6.276961560438E-01  6.352285099163E-01  6.428512520353E-01  6.505654670598E-01
  6.583722526645E-01  6.662727196965E-01  6.742679923328E-01  6.823592082408E-01
  6.905475187397E-01  6.988340889646E-01  7.072200980321E-01  7.157067392085E-01
  7.242952200790E-01  7.329867627200E-01  7.417826038726E-01  7.506839951191E-01
  7.596922030605E-01  7.688085094973E-01  7.780342116112E-01  7.873706221506E-01
  7.968190696164E-01  8.063808984518E-01  8.160574692332E-01  8.258501588640E-01
  8.357603607703E-01  8.457894850996E-01  8.559389589208E-01  8.662102264278E-01
  8.766047491450E-01  8.871240061347E-01  8.977694942083E-01  9.085427281388E-01
  9.194452408765E-01  9.304785837670E-01  9.416443267722E-01  9.529440586935E-01
  9.643793873978E-01  9.759519400466E-01  9.876633633271E-01  9.995153236871E-01
  1.011509507571E+00  1.023647621662E+00  1.035931393122E+00  1.048362569840E+00
  1.060942920678E+00  1.073674235726E+00  1.086558326554E+00  1.099597026473E+00
  1.112792190791E+00  1.126145697080E+00  1.139659445445E+00  1.153335358791E+00
  1.167175383096E+00  1.181181487693E+00  1.195355665546E+00  1.209699933532E+00
  1.224216332735E+00  1.238906928727E+00  1.253773811872E+00  1.268819097615E+00
  1.284044926786E+00  1.299453465907E+00  1.315046907498E+00  1.330827470388E+00
  1.346797400033E+00  1.362958968833E+00  1.379314476459E+00  1.395866250177E+00
  1.412616645179E+00  1.429568044921E+00  1.446722861460E+00  1.464083535798E+00
  1.481652538227E+00  1.499432368686E+00  1.517425557110E+00  1.535634663795E+00
  1.554062279761E+00  1.572711027118E+00  1.591583559444E+00  1.610682562157E+00
  1.630010752903E+00  1.649570881938E+00  1.669365732521E+00  1.689398121311E+00
  1.709670898767E+00  1.730186949552E+00  1.750949192947E+00  1.771960583262E+00
  1.793224110261E+00  1.814742799584E+00  1.836519713179E+00  1.858557949737E+00
  1.880860645134E+00  1.903430972876E+00  1.926272144550E+00  1.949387410285E+00
  1.972780059208E+00  1.996453419919E+00  2.020410860958E+00  2.044655791289E+00
  2.069191660785E+00  2.094021960714E+00  2.119150224243E+00  2.144580026934E+00
  2.170314987257E+00  2.196358767104E+00  2.222715072309E+00  2.249387653177E+00
  2.276380305015E+00  2.303696868675E+00  2.331341231099E+00  2.359317325873E+00
  2.387629133783E+00  2.416280683389E+00  2.445276051589E+00  2.474619364208E+00
  2.504314796579E+00  2.534366574138E+00  2.564778973027E+00  2.595556320704E+00
  2.626702996552E+00  2.658223432511E+00  2.690122113701E+00  2.722403579065E+00
  2.755072422014E+00  2.788133291078E+00  2.821590890571E+00  2.855449981258E+00
  2.889715381033E+00  2.924391965606E+00  2.959484669193E+00  2.994998485223E+00
  3.030938467046E+00  3.067309728650E+00  3.104117445394E+00  3.141366854739E+00
  3.179063256996E+00  3.217212016080E+00  3.255818560273E+00  3.294888382996E+00
  3.334427043592E+00  3.374440168115E+00  3.414933450132E+00  3.455912651534E+00
  3.497383603352E+00  3.539352206593E+00  3.581824433072E+00  3.624806326269E+00
  3.668304002184E+00  3.712323650210E+00  3.756871534013E+00  3.801953992421E+00
  3.847577440330E+00  3.893748369614E+00  3.940473350049E+00  3.987759030250E+00
  4.035612138613E+00  4.084039484276E+00  4.133047958087E+00  4.182644533584E+00
  4.232836267987E+00  4.283630303203E+00  4.335033866842E+00  4.387054273244E+00
  4.439698924523E+00  4.492975311617E+00  4.546891015356E+00  4.601453707541E+00
  4.656671152031E+00  4.712551205855E+00  4.769101820326E+00  4.826331042170E+00
  4.884247014676E+00  4.942857978852E+00  5.002172274598E+00  5.062198341893E+00
  5.122944721996E+00  5.184420058660E+00  5.246633099364E+00  5.309592696556E+00
  5.373307808915E+00  5.437787502622E+00  5.503040952653E+00  5.569077444085E+00
  5.635906373414E+00  5.703537249895E+00  5.771979696894E+00  5.841243453257E+00
  5.911338374696E+00  5.982274435192E+00  6.054061728414E+00  6.126710469155E+00
  6.200230994785E+00  6.274633766723E+00  6.349929371923E+00  6.426128524386E+00
  6.503242066679E+00  6.581280971479E+00  6.660256343137E+00  6.740179419254E+00
  6.821061572286E+00  6.902914311153E+00  6.985749282887E+00  7.069578274281E+00
  7.154413213573E+00  7.240266172136E+00  7.327149366201E+00  7.415075158596E+00
  7.504056060499E+00  7.594104733225E+00  7.685233990024E+00  7.777456797904E+00
  7.870786279479E+00  7.965235714832E+00  8.060818543410E+00  8.157548365931E+00
  8.255438946323E+00  8.354504213678E+00  8.454758264243E+00  8.556215363413E+00
  8.658889947774E+00  8.762796627148E+00  8.867950186673E+00  8.974365588914E+00
  9.082057975981E+00  9.191042671692E+00  9.301335183753E+00  9.412951205958E+00
  9.525906620429E+00  9.640217499874E+00  9.755900109873E+00  9.872970911191E+00
  9.991446562126E+00  1.011134392087E+01  1.023268004792E+01  1.035547220850E+01
  1.047973787500E+01  1.060549472950E+01  1.073276066625E+01  1.086155379425E+01
  1.099189243978E+01  1.112379514906E+01  1.125728069084E+01  1.139236805913E+01
  1.152907647584E+01  1.166742539355E+01  1.180743449828E+01  1.194912371226E+01
  1.209251319680E+01  1.223762335517E+01  1.238447483543E+01  1.253308853345E+01
  1.268348559585E+01  1.283568742300E+01  1.298971567208E+01  1.314559226014E+01
  1.330333936727E+01  1.346297943967E+01  1.362453519295E+01  1.378802961527E+01
  1.395348597065E+01  1.412092780230E+01  1.429037893592E+01  1.446186348315E+01
  1.463540584495E+01  1.481103071509E+01  1.498876308367E+01  1.516862824068E+01
  1.535065177957E+01  1.553485960092E+01  1.572127791613E+01  1.590993325112E+01
  1.610085245014E+01  1.629406267954E+01  1.648959143169E+01  1.668746652887E+01
  1.688771612722E+01  1.709036872075E+01  1.729545314540E+01  1.750299858314E+01
  1.771303456614E+01  1.792559098093E+01  1.814069807270E+01  1.835838644958E+01
  1.857868708697E+01  1.880163133202E+01  1.902725090800E+01  1.925557791890E+01
  1.948664485392E+01  1.972048459217E+01  1.995713040728E+01  2.019661597216E+01
  2.043897536383E+01  2.068424306819E+01  2.093245398501E+01  2.118364343283E+01
  2.143784715403E+01  2.169510131988E+01  2.195544253571E+01  2.221890784614E+01
  2.248553474030E+01  2.275536115718E+01  2.302842549107E+01  2.330476659696E+01
  2.358442379612E+01  2.386743688168E+01  2.415384612426E+01  2.444369227775E+01
  2.473701658508E+01  2.503386078410E+01  2.533426711351E+01  2.563827831887E+01
  2.594593765870E+01  2.625728891060E+01  2.657237637753E+01  2.689124489406E+01
  2.721393983279E+01  2.754050711078E+01  2.787099319611E+01  2.820544511447E+01
  2.854391045584E+01  2.888643738131E+01  2.923307462988E+01  2.958387152544E+01
  2.993887798375E+01  3.029814451955E+01  3.066172225379E+01  3.102966292083E+01
  3.140201887588E+01  3.177884310239E+01  3.216018921962E+01  3.254611149026E+01
  3.293666482814E+01  3.333190480608E+01  3.373188766375E+01  3.413667031572E+01
  3.454631035951E+01  3.496086608382E+01  3.538039647683E+01  3.580496123455E+01
  3.623462076936E+01  3.666943621859E+01  3.710946945322E+01  3.755478308666E+01
  3.800544048370E+01  3.846150576950E+01  3.892304383873E+01  3.939012036480E+01
  3.986280180918E+01  4.034115543089E+01  4.082524929606E+01  4.131515228761E+01
  4.181093411506E+01  4.231266532444E+01  4.282041730834E+01  4.333426231604E+01
  4.385427346383E+01  4.438052474539E+01
</grid-data>
</grid>
<valence-charge total-charge="9" is-unscreening-charge="yes"
 rescaled-to-z-pseudo="no">
<radfunc>
<data npts="458">
  7.249551945583E-02  7.301092940915E-02  7.460150473427E-02  7.723503139498E-02
  8.089791144050E-02  8.571664645224E-02  9.186207442470E-02  9.890464130404E-02
  1.068302873306E-01  1.160822378555E-01  1.265228789776E-01  1.378856695276E-01
  1.516384094649E-01  1.660252248940E-01  1.804211943148E-01  1.970328618642E-01
  2.162010191362E-01  2.344091626401E-01  2.549234853510E-01  2.780355061127E-01
  3.040732977068E-01  3.272566012088E-01  3.527576038341E-01  3.808067440822E-01
  4.116569138010E-01  4.455854886460E-01  4.828964891706E-01  5.132985905593E-01
  5.459418541826E-01  5.809886742358E-01  6.186125219761E-01  6.589985360395E-01
  7.023441036667E-01  7.488594206493E-01  7.987680145584E-01  8.523072119021E-01
  9.097285251683E-01  9.712979301240E-01  1.014786648414E+00  1.060330091517E+00
  1.108017832475E+00  1.157942229403E+00  1.210198338920E+00  1.264883796216E+00
  1.322098656694E+00  1.381945193569E+00  1.444527645197E+00  1.509951905265E+00
  1.578325148287E+00  1.649755382160E+00  1.724350918798E+00  1.802219753160E+00
  1.883468840220E+00  1.968203258810E+00  2.056525250550E+00  2.148533121612E+00
  2.244319994559E+00  2.343972397304E+00  2.447568676154E+00  2.555177220150E+00
  2.666854484534E+00  2.782642802154E+00  2.902567973222E+00  3.026636625974E+00
  3.154833343715E+00  3.287117557478E+00  3.423420208254E+00  3.493048204907E+00
  3.563640188558E+00  3.635177895856E+00  3.707640580086E+00  3.781004884310E+00
  3.855244712541E+00  3.930331099359E+00  4.006232078371E+00  4.082912550021E+00
  4.160334149257E+00  4.238455113669E+00  4.317230152737E+00  4.396610318905E+00
  4.476542881252E+00  4.556971202610E+00  4.637834621031E+00  4.719068336574E+00
  4.800603304463E+00  4.882366135719E+00  4.964279006441E+00  5.046259576983E+00
  5.128220922326E+00  5.210071475001E+00  5.291714981995E+00  5.373050477086E+00
  5.453972270136E+00  5.534369954869E+00  5.614128436724E+00  5.693127982351E+00
  5.771244292361E+00  5.848348598908E+00  5.924307789670E+00  5.998984559752E+00
  6.072237592997E+00  6.143921774099E+00  6.213888432825E+00  6.281985621562E+00
  6.348058427240E+00  6.411949318551E+00  6.473498529192E+00  6.532544477668E+00
  6.588924223952E+00  6.642473963061E+00  6.693029555326E+00  6.740427092834E+00
  6.784503501215E+00  6.825097175578E+00  6.862048649081E+00  6.895201292201E+00
  6.924402040398E+00  6.949502147465E+00  6.970357961440E+00  6.986831719509E+00
  6.998792357957E+00  7.006116332758E+00  7.008688446007E+00  7.006402672973E+00
  6.999162984208E+00  6.986884156714E+00  6.969492567898E+00  6.946926965700E+00
  6.919139208008E+00  6.886094964262E+00  6.847774371959E+00  6.804172640640E+00
  6.755300595882E+00  6.701185155800E+00  6.641869732638E+00  6.577414552180E+00
  6.507896883905E+00  6.433411175145E+00  6.354069082902E+00  6.269999397471E+00
  6.181347852620E+00  6.088276817799E+00  5.990964868671E+00  5.889606233184E+00
  5.784410111486E+00  5.675599869147E+00  5.563412104469E+00  5.448095592056E+00
  5.329910106373E+00  5.209125130615E+00  5.086018457968E+00  4.960874694167E+00
  4.833983672141E+00  4.705638791322E+00  4.576135295942E+00  4.445768508454E+00
  4.314832035812E+00  4.183615967856E+00  4.052405088326E+00  3.921477120039E+00
  3.791101026492E+00  3.661535392480E+00  3.533026906283E+00  3.405808965436E+00
  3.280100427165E+00  3.156104523035E+00  3.034008107023E+00  2.913981730322E+00
  2.796180251867E+00  2.680742615503E+00  2.567791283907E+00  2.457432180123E+00
  2.349754969807E+00  2.244834883939E+00  2.142735470777E+00  2.043509451122E+00
  1.947198669316E+00  1.853834750508E+00  1.763439526478E+00  1.676025516064E+00
  1.591596412771E+00  1.510147580673E+00  1.431666555370E+00  1.356133547387E+00
  1.283521945373E+00  1.213798816685E+00  1.146925403095E+00  1.082857609552E+00
  1.021546484105E+00  9.629386872954E-01  9.069769493552E-01  8.536005140987E-01
  8.027455680533E-01  7.543456539255E-01  7.083320675005E-01  6.646342372495E-01
  6.231800860640E-01  5.838963746727E-01  5.467090264232E-01  5.115434332343E-01
  4.783247426335E-01  4.469781258996E-01  4.174290274267E-01  3.896033955108E-01
  3.634278948423E-01  3.388301010557E-01  3.157386777559E-01  2.940835364921E-01
  2.737959802033E-01  2.548088307015E-01  2.370565407914E-01  2.204752916614E-01
  2.050030762002E-01  1.905797689144E-01  1.771471831367E-01  1.646491162243E-01
  1.530313834501E-01  1.422418412932E-01  1.322304008318E-01  1.229490319356E-01
  1.143517589463E-01  1.063946485246E-01  9.903579032713E-02  9.223527116088E-02
  8.595514324588E-02  8.015938719610E-02  7.481387030848E-02  6.988630072694E-02
  6.534617802534E-02  6.116474072856E-02  5.731491126591E-02  5.377123882530E-02
  5.050984055003E-02  4.750834149379E-02  4.474581372212E-02  4.220271492182E-02
  3.986082685275E-02  3.770319394920E-02  3.571406235188E-02  3.387881962473E-02
  3.218393538518E-02  3.061690305122E-02  2.916618288402E-02  2.782114648126E-02
  2.657202285359E-02  2.540984619491E-02  2.432640543685E-02  2.331419565838E-02
  2.236637140356E-02  2.147670194405E-02  2.063952850754E-02  1.984972347950E-02
  1.910265157354E-02  1.839413295410E-02  1.772040828599E-02  1.707810567654E-02
  1.646420946915E-02  1.587603084067E-02  1.531118015040E-02  1.476754098419E-02
  1.424324583408E-02  1.373665335167E-02  1.324632711183E-02  1.277101582212E-02
  1.230963491339E-02  1.186124944667E-02  1.142505827224E-02  1.100037937753E-02
  1.058663636179E-02  1.018334597669E-02  9.790106673848E-03  9.406588101855E-03
  9.032521497419E-03  8.667690917126E-03  8.311925258387E-03  7.965091020212E-03
  7.627085756531E-03  7.297832176856E-03  6.977272851156E-03  6.665365477832E-03
  6.362078675672E-03  6.067388262599E-03  5.781273985932E-03  5.503716670662E-03
  5.234695754046E-03  4.974187176486E-03  4.722161600298E-03  4.478582929523E-03
  4.243407105441E-03  4.016581153841E-03  3.798042461483E-03  3.587718260467E-03
  3.385525300459E-03  3.191369689893E-03  3.005146888387E-03  2.826741833514E-03
  2.656029187107E-03  2.492873684501E-03  2.337130574901E-03  2.188646138886E-03
  2.047258271183E-03  1.912797117419E-03  1.785085754339E-03  1.663940903689E-03
  1.549173670719E-03  1.440590298890E-03  1.337992933069E-03  1.241180384113E-03
  1.149948888352E-03  1.064092856100E-03  9.834056038515E-04  9.076800654369E-04
  8.367094778820E-04  7.702880382913E-04  7.082115285379E-04  6.502779050444E-04
  5.962878513964E-04  5.460452919753E-04  4.993578652243E-04  4.560373555655E-04
  4.159000833675E-04  3.787672527312E-04  3.444652571931E-04  3.128259437687E-04
  2.836868360473E-04  2.568913173181E-04  2.322887749502E-04  2.097347074676E-04
  1.890907959508E-04  1.702249415628E-04  1.530112711392E-04  1.373301128961E-04
  1.230679444003E-04  1.101173150133E-04  9.837674506299E-05  8.775060401863E-05
  7.814896994315E-05  6.948747247828E-05  6.168712157846E-05  5.467412415464E-05
  4.837969071880E-05  4.273983403600E-05  3.769516169533E-05  3.319066440561E-05
  2.917550170825E-05  2.560278667951E-05  2.242937107000E-05  1.961563220137E-05
  1.712526281129E-05  1.492506490839E-05  1.298474857163E-05  1.127673650290E-05
  9.775975020804E-06  8.459752066726E-06  7.307522683187E-06  6.300742319801E-06
  5.422708224040E-06  4.658409083339E-06  3.994383001783E-06  3.418583819196E-06
  2.920255712702E-06  2.489815960862E-06  2.118745698145E-06  1.799488442496E-06
  1.525356140879E-06  1.290442446562E-06  1.089542917078E-06  9.180818029456E-07
  7.720450837666E-07  6.479193998517E-07  5.426365234846E-07  4.535230139056E-07
  3.782547035313E-07  3.148156693824E-07  2.614613527135E-07  2.166855009827E-07
  1.791906191741E-07  1.478616317103E-07  1.217424714204E-07  1.000153279567E-07
  8.198230439227E-08  6.704924724194E-08  5.471153162023E-08  4.454159946068E-08
  3.617806461580E-08  2.931621394509E-08  2.369974825374E-08  1.911362096188E-08
  1.537784566325E-08  1.234215621837E-08  9.881414699587E-09  7.891673355832E-09
  6.286806797022E-09  4.995639826509E-09  3.959504797374E-09  3.130170064252E-09
  2.468088081594E-09  1.940918000506E-09  1.522283280774E-09  1.190729905367E-09
  9.288553050936E-10  7.225821145909E-10  5.605544302022E-10  4.336373668711E-10
  3.345034547509E-10  2.572918145268E-10  1.973281390196E-10  1.508953207166E-10
  1.150461312149E-10  8.745070753138E-11  6.627275772870E-11  5.006938790917E-11
  3.771029560061E-11  2.831279004266E-11  2.118970495599E-11  1.580777923194E-11
  1.175450905019E-11  8.711833034500E-12  6.435310544034E-12  4.737701090818E-12
  3.476057999432E-12  2.541618540927E-12  1.851911689605E-12  1.344618340766E-12
  9.728115264039E-13  7.012794681391E-13  5.036952480303E-13  3.604460109775E-13
  2.569740749522E-13  1.825138993791E-13  1.291340272027E-13  9.101309548213E-14
  6.389480934640E-14  4.467921971771E-14  3.111740950038E-14  2.158432280926E-14
  1.491040967687E-14  1.025736084174E-14  7.026759408697E-15  4.793206496138E-15
  3.255567760265E-15  2.201580380596E-15  1.482268726220E-15  9.935301258367E-16
  6.629391230446E-16  4.403330723307E-16  2.911255023359E-16  1.915783530577E-16
  1.254745111987E-16  8.178672836914E-17  5.305220715725E-17  3.424460090011E-17
  2.199496374554E-17  1.405629918722E-17  0.000000000000E+00  0.000000000000E+00
  0.000000000000E+00  0.000000000000E+00
</data>
</radfunc>
</valence-charge>
<pseudocore-charge matching-radius="0.682359208241"
 number-of-continuous-derivatives="4">
<annotation model-charge-form="Teter function with specified parameters" />
<radfunc>
<data npts="257">
  3.269476679056E+01  3.269192836964E+01  3.268317040106E+01  3.266867478605E+01
  3.264852372678E+01  3.262203218923E+01  3.258827722665E+01  3.254963609328E+01
  3.250620257254E+01  3.245557133045E+01  3.239852592857E+01  3.233655117118E+01
  3.226169243734E+01  3.218355853346E+01  3.210555413092E+01  3.201576526914E+01
  3.191245058183E+01  3.181459814871E+01  3.170468521342E+01  3.158127319644E+01
  3.144276479073E+01  3.131990536662E+01  3.118526325812E+01  3.103776547372E+01
  3.087625326642E+01  3.069947785454E+01  3.050609653863E+01  3.034930045835E+01
  3.018171146102E+01  3.000265340967E+01  2.981141808198E+01  2.960726531744E+01
  2.938942350642E+01  2.915709048432E+01  2.890943490198E+01  2.864559815144E+01
  2.836469693494E+01  2.806582657367E+01  2.785614210733E+01  2.763778548025E+01
  2.741047867852E+01  2.717394295554E+01  2.692789983324E+01  2.667207222131E+01
  2.640618566244E+01  2.612996971182E+01  2.584315945881E+01  2.554549719881E+01
  2.523673426297E+01  2.491663301294E+01  2.458496900721E+01  2.424153334490E+01
  2.388613519162E+01  2.351860449080E+01  2.313879486219E+01  2.274658668735E+01
  2.234189037937E+01  2.192464983149E+01  2.149484603602E+01  2.105250086107E+01
  2.059768096846E+01  2.013050185149E+01  1.965113196551E+01  1.915979691869E+01
  1.865678368339E+01  1.814244478164E+01  1.761720239050E+01  1.735064434228E+01
  1.708155230475E+01  1.681000037035E+01  1.653606768584E+01  1.625983855209E+01
  1.598140251711E+01  1.570085446162E+01  1.541829467628E+01  1.513382892981E+01
  1.484756852706E+01  1.455963035606E+01  1.427013692327E+01  1.397921637595E+01
  1.368700251057E+01  1.339363476655E+01  1.309925820388E+01  1.280402346404E+01
  1.250808671277E+01  1.221160956393E+01  1.191475898327E+01  1.161770717112E+01
  1.132063142297E+01  1.102371396705E+01  1.072714177783E+01  1.043110636461E+01
  1.013580353440E+01  9.841433128272E+00  9.548198730426E+00  9.256307349508E+00
  8.965969071554E+00  8.677396684226E+00  8.390805272090E+00  8.106411782809E+00
  7.824434564314E+00  7.545092873169E+00  7.268606354560E+00  6.995194494511E+00
  6.725076045171E+00  6.458468424260E+00  6.195587089962E+00  5.936644892885E+00
  5.681851406910E+00  5.431412241086E+00  5.185528334988E+00  4.944395240287E+00
  4.708202391544E+00  4.477132369592E+00  4.251360161150E+00  4.031052418630E+00
  3.816366724379E+00  3.607450863920E+00  3.404442112986E+00  3.207466543424E+00
  3.016638353264E+00  2.832059226447E+00  2.653817727863E+00  2.481988739497E+00
  2.316632943529E+00  2.157796358286E+00  2.005509932898E+00  1.859789206414E+00
  1.720634036993E+00  1.588028406524E+00  1.461940305734E+00  1.342321704447E+00
  1.229108611160E+00  1.122221225586E+00  1.021564187095E+00  9.270269213106E-01
  8.384840862498E-01  7.557961185223E-01  6.788098790957E-01  6.073593971040E-01
  5.412667090545E-01  4.803427896280E-01  4.243885690732E-01  3.731960309735E-01
  3.265493829447E-01  2.842262916146E-01  2.459991720631E-01  2.116365207945E-01
  1.809042802817E-01  1.535672222055E-01  1.293903357238E-01  1.081402064806E-01
  8.958637161693E-02  7.350263581059E-02  5.966833335920E-02  4.786952155538E-02
  3.790009109775E-02  2.956278004506E-02  2.267007885914E-02  1.704501539423E-02
  1.252181026630E-02  8.946394862980E-03  6.176786307671E-03  4.083315941148E-03
  2.548710291677E-03  1.468026023807E-03  7.484429345642E-04  3.089216442368E-04
  7.973514383271E-05  1.885745521990E-06  2.642116744450E-05  1.136654024199E-04
  2.323816065601E-04  3.588854394114E-04  4.761280410923E-04  5.727681038239E-04
  6.422522584567E-04  6.819222397983E-04  6.921660237956E-04  6.756283696131E-04
  6.364939942898E-04  5.798540198980E-04  5.111634438655E-04  4.357942891553E-04
  3.586859020081E-04  2.840906995443E-04  2.154106504197E-04  1.551170202722E-04
  1.047435438916E-04  6.494129842129E-05  3.558222755199E-05  1.589756180112E-05
  4.637321456502E-06  2.376709450949E-07  9.840766537840E-07  5.159931515472E-06
  1.117244514369E-05  1.765002823995E-05  2.350797581350E-05  2.798181677628E-05
  3.063008913612E-05  3.131037270927E-05  3.013403920398E-05  2.740626855149E-05
  2.355837606374E-05  1.907938803291E-05  1.445313145125E-05  1.010594942617E-05
  6.368639542416E-06  3.454489140670E-06  1.453516753704E-06  3.413912470434E-07
  1.428471747284E-10  2.468259182964E-07  8.658212406189E-07  1.640502388013E-06
  2.380507384859E-06  2.941770633616E-06  3.237654332835E-06  3.240816801736E-06
  2.976700124517E-06  2.510554455950E-06  1.930615092069E-06  1.330332781299E-06
  7.924084835792E-07  3.768437153612E-07  1.143858020151E-07  5.764537204839E-09
  0.000000000000E+00  0.000000000000E+00  0.000000000000E+00  0.000000000000E+00
  0.000000000000E+00  0.000000000000E+00  0.000000000000E+00  0.000000000000E+00
  0.000000000000E+00  0.000000000000E+00  0.000000000000E+00  0.000000000000E+00
  0.000000000000E+00  0.000000000000E+00  0.000000000000E+00  0.000000000000E+00
  0.000000000000E+00  0.000000000000E+00  0.000000000000E+00  0.000000000000E+00
  0.000000000000E+00  0.000000000000E+00  0.000000000000E+00  0.000000000000E+00
  0.000000000000E+00  0.000000000000E+00  0.000000000000E+00  0.000000000000E+00
  0.000000000000E+00
</data>
</radfunc>
</pseudocore-charge>
<semilocal-potentials set="scalar_relativistic">
<slps n="3" l="s" rc="1.36295896883" eref="-1.29290705043">
<radfunc>
<data npts="257">
  4.958947043358E+01  4.955575257408E+01  4.945191377649E+01  4.928070192070E+01
  4.904403966222E+01  4.873527361500E+01  4.834568611752E+01  4.790489666304E+01
  4.741593332859E+01  4.685443351009E+01  4.623249489842E+01  4.556931689088E+01
  4.478511484319E+01  4.398561805433E+01  4.320614779398E+01  4.233120967296E+01
  4.135281862886E+01  4.045295403744E+01  3.947189802959E+01  3.840609770769E+01
  3.725266977279E+01  3.626543938908E+01  3.522024548003E+01  3.411701556407E+01
  3.295622816008E+01  3.173896655549E+01  3.046696420786E+01  2.947846691663E+01
  2.846180324873E+01  2.741847777496E+01  2.635021817821E+01  2.525897014598E+01
  2.414688873773E+01  2.301632619415E+01  2.186981625677E+01  2.071005517350E+01
  1.953987967323E+01  1.836224229632E+01  1.757450439779E+01  1.678571799180E+01
  1.599680853143E+01  1.520870566258E+01  1.442233929954E+01  1.363863573195E+01
  1.285851380277E+01  1.208288119544E+01  1.131263086695E+01  1.054863766119E+01
  9.791755133973E+00  9.042812617950E+00  8.302612551740E+00  7.571928093563E+00
  6.851501035345E+00  6.142040028699E+00  5.444219129662E+00  4.758676664471E+00
  4.086014414156E+00  3.426797111431E+00  2.781552239218E+00  2.150770116289E+00
  1.534904252027E+00  9.343719490701E-01  3.495551298661E-01 -2.191986392689E-01
 -7.715749549453E-01 -1.307291244268E+00 -1.826095324213E+00 -2.079084415903E+00
 -2.327763884503E+00 -2.572110071289E+00 -2.812100925919E+00 -3.047715957419E+00
 -3.278936185679E+00 -3.505744093699E+00 -3.728123580816E+00 -3.946059917102E+00
 -4.159539699164E+00 -4.368550807519E+00 -4.573082365739E+00 -4.773124701517E+00
 -4.968669309832E+00 -5.159708818319E+00 -5.346236954989E+00 -5.528248518369E+00
 -5.705739350170E+00 -5.878706310502E+00 -6.047147255689E+00 -6.211061018670E+00
 -6.370447391961E+00 -6.525307113120E+00 -6.675641852613E+00 -6.821454203973E+00
 -6.962747676061E+00 -7.099526687263E+00 -7.231796561351E+00 -7.359563524754E+00
 -7.482834704913E+00 -7.601618129362E+00 -7.715922725145E+00 -7.825758318138E+00
 -7.931135631798E+00 -8.032066284862E+00 -8.128562787449E+00 -8.220638535038E+00
 -8.308307799758E+00 -8.391585718424E+00 -8.470488276768E+00 -8.545032289330E+00
 -8.615235374516E+00 -8.681115924358E+00 -8.742693068635E+00 -8.799986633056E+00
 -8.853017091370E+00 -8.901805511402E+00 -8.946373495218E+00 -8.986743113812E+00
 -9.022936837009E+00 -9.054977459541E+00 -9.082888024623E+00 -9.106691746731E+00
 -9.126411935714E+00 -9.142071924870E+00 -9.153695006105E+00 -9.161304375898E+00
 -9.164923096354E+00 -9.164574076285E+00 -9.160280077894E+00 -9.152063755291E+00
 -9.139947731727E+00 -9.123954723044E+00 -9.104107715412E+00 -9.080430205893E+00
 -9.052946514784E+00 -9.021682178857E+00 -8.986664434676E+00 -8.947922800913E+00
 -8.905489768056E+00 -8.859401602996E+00 -8.809699274602E+00 -8.756429504594E+00
 -8.699645945510E+00 -8.639410484532E+00 -8.575794668074E+00 -8.508881237449E+00
 -8.438765760471E+00 -8.365558337550E+00 -8.289385353670E+00 -8.210391239598E+00
 -8.128740196954E+00 -8.044617832373E+00 -7.958232636222E+00 -7.869817231472E+00
 -7.779629308692E+00 -7.687952154312E+00 -7.595094671807E+00 -7.501390789981E+00
 -7.407198149880E+00 -7.312895962845E+00 -7.218881937643E+00 -7.125568185396E+00
 -7.033376027773E+00 -6.942729657122E+00 -6.854048627221E+00 -6.767739189713E+00
 -6.684184533472E+00 -6.603734030718E+00 -6.525454839807E+00 -6.448049005267E+00
 -6.371556363694E+00 -6.295967542040E+00 -6.221273196777E+00 -6.147464053707E+00
 -6.074530939725E+00 -6.002464699228E+00 -5.931256020680E+00 -5.860895409104E+00
 -5.791373243793E+00 -5.722679782403E+00 -5.654805190570E+00 -5.587739571413E+00
 -5.521472997857E+00 -5.455995546390E+00 -5.391297331201E+00 -5.327368537553E+00
 -5.264199453298E+00 -5.201780497457E+00 -5.140102244894E+00 -5.079155446263E+00