<?xml version="1.0" encoding="UTF-8" ?>
<psml version="1.1" energy_unit="hartree" length_unit="bohr"
 uuid="ca302fa0-23d2-11e8-5eb9-2401ffb7267c"
 xmlns="http://esl.cecam.org/PSML/ns/1.1">
<provenance creator="ONCVPSP-3.3.0+psml-3.3.0-73 (scalar-relativistic)"
 date="2018-03-09">
<annotation action="semilocal-pseudopotential-generation"
 action-cont="projectors-generation" />
<input-file name="oncvpsp-input">
<![CDATA[# atsym z nc nv iexc psfile
Kr 36 6 2 -001012 upf
# n l f
1 0 2.0
2 0 2.0
2 1 6.0
3 0 2.0
3 1 6.0
3 2 10.0
4 0 2.0
4 1 6.0
# lmax
2
# l rc ep ncon nbas qcut
0 1.75 0.0 4 8 6.1
1 1.5 0.0 4 7 7.0
2 1.8 0.1 4 7 7.6
# lloc lpopt rc5 dvloc0
4 5 1.5 0.0
# l nproj debl
0 2 3.0
1 2 3.0
2 2 4.0
# icmod fcfact rcfact
3 7.0 1.24
# epsh1 epsh2 depsh
-12.0 12.0 0.02
# rlmax drl
6.0 0.01
 0
]]>
</input-file>
</provenance>
<pseudo-atom-spec atomic-label="Kr" atomic-number="36" z-pseudo="8"
 flavor="Hamann&apos;s oncvpsp" relativity="scalar" spin-dft="no"
 core-corrections="yes">
<annotation pseudo-energy="-18.6265451308" />
<exchange-correlation>
<annotation oncvpsp-xc-code="-1012" oncvpsp-xc-type="libxc-interface" />
<libxc-info number-of-functionals="2">
<functional name="Slater exchange (LDA)" type="exchange" id="1" />
<functional name="Perdew &amp; Wang (LDA)" type="correlation" id="12" />
</libxc-info>
</exchange-correlation>
<valence-configuration total-valence-charge="8">
<shell n="4" l="s" occupation="2" />
<shell n="4" l="p" occupation="6" />
</valence-configuration>
</pseudo-atom-spec>
<grid npts="457">
<annotation type="sampled from oncvpsp log grid"
 recipe="r(i:1..N) = r1*exp(a*(i-1)) + r=0; resampled"
 recipe-cont="r1: scale; a: step" scale="0.138888888889E-04"
 step="0.119285708653E-01" delta="0.500000000000E-02" rmax="44.0768648367" />
<grid-data>
  0.000000000000E+00  5.033159350498E-03  1.005334081446E-02  1.508161433186E-02
  2.032172843085E-02  2.549120590227E-02  3.085166315597E-02  3.602676308192E-02
  4.107815044163E-02  4.628241435380E-02  5.152768351151E-02  5.668716249522E-02
  6.236326131450E-02  6.779417908512E-02  7.282415956102E-02  7.822733879719E-02
  8.403140622808E-02  8.919575662272E-02  9.467749448230E-02  1.004961256101E-01
  1.066723545851E-01  1.118855320508E-01  1.173534823618E-01  1.230886565046E-01
  1.291041139573E-01  1.354135524264E-01  1.420313390386E-01  1.472060702126E-01
  1.525693361347E-01  1.581280058285E-01  1.638891985821E-01  1.698602930653E-01
  1.760489367809E-01  1.824630558582E-01  1.891108652054E-01  1.960008790302E-01
  2.031419217445E-01  2.105431392668E-01  2.156264928212E-01  2.208325788639E-01
  2.261643606480E-01  2.316248729715E-01  2.372172239045E-01  2.429445965584E-01
  2.488102508977E-01  2.548175255954E-01  2.609698399334E-01  2.672706957487E-01
  2.737236794269E-01  2.803324639430E-01  2.871008109524E-01  2.940325729321E-01
  3.011316953729E-01  3.084022190260E-01  3.158482822022E-01  3.234741231277E-01
  3.312840823565E-01  3.392826052409E-01  3.474742444618E-01  3.558636626201E-01
  3.644556348904E-01  3.732550517392E-01  3.822669217084E-01  3.914963742661E-01
  4.009486627264E-01  4.106291672393E-01  4.205433978531E-01  4.255899186273E-01
  4.306969976508E-01  4.358653616227E-01  4.410957459621E-01  4.463888949137E-01
  4.517455616526E-01  4.571665083925E-01  4.626525064932E-01  4.682043365711E-01
  4.738227886099E-01  4.795086620733E-01  4.852627660181E-01  4.910859192104E-01
  4.969789502409E-01  5.029426976438E-01  5.089780100155E-01  5.150857461357E-01
  5.212667750893E-01  5.275219763904E-01  5.338522401071E-01  5.402584669884E-01
  5.467415685922E-01  5.533024674153E-01  5.599420970243E-01  5.666614021886E-01
  5.734613390149E-01  5.803428750830E-01  5.873069895840E-01  5.943546734590E-01
  6.014869295406E-01  6.087047726950E-01  6.160092299674E-01  6.234013407270E-01
  6.308821568157E-01  6.384527426975E-01  6.461141756099E-01  6.538675457172E-01
  6.617139562658E-01  6.696545237410E-01  6.776903780259E-01  6.858226625622E-01
  6.940525345129E-01  7.023811649271E-01  7.108097389062E-01  7.193394557731E-01
  7.279715292424E-01  7.367071875933E-01  7.455476738444E-01  7.544942459305E-01
  7.635481768817E-01  7.727107550043E-01  7.819832840643E-01  7.913670834731E-01
  8.008634884748E-01  8.104738503365E-01  8.201995365405E-01  8.300419309790E-01
  8.400024341508E-01  8.500824633606E-01  8.602834529209E-01  8.706068543559E-01
  8.810541366082E-01  8.916267862475E-01  9.023263076825E-01  9.131542233747E-01
  9.241120740552E-01  9.352014189438E-01  9.464238359711E-01  9.577809220028E-01
  9.692742930668E-01  9.809055845836E-01  9.926764515986E-01  1.004588569018E+00
  1.016643631846E+00  1.028843355428E+00  1.041189475693E+00  1.053683749402E+00
  1.066327954394E+00  1.079123889847E+00  1.092073376525E+00  1.105178257044E+00
  1.118440396128E+00  1.131861680882E+00  1.145444021052E+00  1.159189349305E+00
  1.173099621497E+00  1.187176816955E+00  1.201422938758E+00  1.215840014023E+00
  1.230430094191E+00  1.245195255322E+00  1.260137598386E+00  1.275259249566E+00
  1.290562360561E+00  1.306049108888E+00  1.321721698194E+00  1.337582358573E+00
  1.353633346876E+00  1.369876947038E+00  1.386315470403E+00  1.402951256047E+00
  1.419786671120E+00  1.436824111173E+00  1.454066000507E+00  1.471514792514E+00
  1.489172970024E+00  1.507043045664E+00  1.525127562212E+00  1.543429092958E+00
  1.561950242074E+00  1.580693644979E+00  1.599661968719E+00  1.618857912343E+00
  1.638284207291E+00  1.657943617779E+00  1.677838941192E+00  1.697973008487E+00
  1.718348684588E+00  1.738968868803E+00  1.759836495229E+00  1.780954533172E+00
  1.802325987570E+00  1.823953899421E+00  1.845841346214E+00  1.867991442368E+00
  1.890407339677E+00  1.913092227753E+00  1.936049334486E+00  1.959281926500E+00
  1.982793309618E+00  2.006586829333E+00  2.030665871285E+00  2.055033861741E+00
  2.079694268081E+00  2.104650599298E+00  2.129906406490E+00  2.155465283368E+00
  2.181330866768E+00  2.207506837170E+00  2.233996919216E+00  2.260804882246E+00
  2.287934540833E+00  2.315389755323E+00  2.343174432387E+00  2.371292525576E+00
  2.399748035883E+00  2.428545012313E+00  2.457687552461E+00  2.487179803090E+00
  2.517025960727E+00  2.547230272256E+00  2.577797035523E+00  2.608730599950E+00
  2.640035367149E+00  2.671715791555E+00  2.703776381053E+00  2.736221697626E+00
  2.769056357998E+00  2.802285034294E+00  2.835912454705E+00  2.869943404162E+00
  2.904382725011E+00  2.939235317712E+00  2.974506141524E+00  3.010200215222E+00
  3.046322617805E+00  3.082878489219E+00  3.119873031089E+00  3.157311507462E+00
  3.195199245552E+00  3.233541636499E+00  3.272344136137E+00  3.311612265770E+00
  3.351351612959E+00  3.391567832315E+00  3.432266646303E+00  3.473453846058E+00
  3.515135292211E+00  3.557316915718E+00  3.600004718706E+00  3.643204775331E+00
  3.686923232635E+00  3.731166311426E+00  3.775940307163E+00  3.821251590849E+00
  3.867106609940E+00  3.913511889259E+00  3.960474031930E+00  4.007999720313E+00
  4.056095716957E+00  4.104768865560E+00  4.154026091947E+00  4.203874405050E+00
  4.254320897911E+00  4.305372748686E+00  4.357037221670E+00  4.409321668330E+00
  4.462233528350E+00  4.515780330690E+00  4.569969694659E+00  4.624809330995E+00
  4.680307042967E+00  4.736470727482E+00  4.793308376212E+00  4.850828076726E+00
  4.909038013647E+00  4.967946469811E+00  5.027561827449E+00  5.087892569378E+00
  5.148947280211E+00  5.210734647573E+00  5.273263463344E+00  5.336542624904E+00
  5.400581136403E+00  5.465388110040E+00  5.530972767360E+00  5.597344440569E+00
  5.664512573855E+00  5.732486724742E+00  5.801276565439E+00  5.870891884224E+00
  5.941342586835E+00  6.012638697877E+00  6.084790362251E+00  6.157807846598E+00
  6.231701540757E+00  6.306481959246E+00  6.382159742757E+00  6.458745659670E+00
  6.536250607586E+00  6.614685614878E+00  6.694061842256E+00  6.774390584363E+00
  6.855683271375E+00  6.937951470632E+00  7.021206888280E+00  7.105461370939E+00
  7.190726907390E+00  7.277015630279E+00  7.364339817842E+00  7.452711895656E+00
  7.542144438404E+00  7.632650171665E+00  7.724241973725E+00  7.816932877410E+00
  7.910736071939E+00  8.005664904802E+00  8.101732883660E+00  8.198953678263E+00
  8.297341122403E+00  8.396909215871E+00  8.497672126462E+00  8.599644191979E+00
  8.702839922283E+00  8.807274001351E+00  8.912961289367E+00  9.019916824839E+00
  9.128155826737E+00  9.237693696658E+00  9.348546021018E+00  9.460728573270E+00
  9.574257316149E+00  9.689148403943E+00  9.805418184791E+00  9.923083203008E+00
  1.004216020144E+01  1.016266612386E+01  1.028461811735E+01  1.040803353476E+01
  1.053292993717E+01  1.065932509642E+01  1.078723699758E+01  1.091668384155E+01
  1.104768404765E+01  1.118025625622E+01  1.131441933129E+01  1.145019236327E+01
  1.158759467163E+01  1.172664580769E+01  1.186736555738E+01  1.200977394407E+01
  1.215389123140E+01  1.229973792617E+01  1.244733478129E+01  1.259670279866E+01
  1.274786323225E+01  1.290083759103E+01  1.305564764213E+01  1.321231541383E+01
  1.337086319880E+01  1.353131355718E+01  1.369368931987E+01  1.385801359171E+01
  1.402430975481E+01  1.419260147187E+01  1.436291268953E+01  1.453526764180E+01
  1.470969085350E+01  1.488620714375E+01  1.506484162947E+01  1.524561972902E+01
  1.542856716577E+01  1.561370997176E+01  1.580107449142E+01  1.599068738532E+01
  1.618257563394E+01  1.637676654155E+01  1.657328774005E+01  1.677216719293E+01
  1.697343319925E+01  1.717711439764E+01  1.738323977041E+01  1.759183864765E+01
  1.780294071142E+01  1.801657599996E+01  1.823277491196E+01  1.845156821091E+01
  1.867298702944E+01  1.889706287379E+01  1.912382762827E+01  1.935331355981E+01
  1.958555332253E+01  1.982057996240E+01  2.005842692195E+01  2.029912804501E+01
  2.054271758155E+01  2.078923019253E+01  2.103870095484E+01  2.129116536630E+01
  2.154665935070E+01  2.180521926291E+01  2.206688189406E+01  2.233168447679E+01
  2.259966469051E+01  2.287086066680E+01  2.314531099480E+01  2.342305472674E+01
  2.370413138346E+01  2.398858096006E+01  2.427644393158E+01  2.456776125876E+01
  2.486257439386E+01  2.516092528659E+01  2.546285639003E+01  2.576841066671E+01
  2.607763159471E+01  2.639056317385E+01  2.670724993193E+01  2.702773693112E+01
  2.735206977429E+01  2.768029461158E+01  2.801245814692E+01  2.834860764468E+01
  2.868879093642E+01  2.903305642766E+01  2.938145310479E+01  2.973403054204E+01
  3.009083890855E+01  3.045192897545E+01  3.081735212316E+01  3.118716034863E+01
  3.156140627282E+01  3.194014314809E+01  3.232342486587E+01  3.271130596426E+01
  3.310384163583E+01  3.350108773546E+01  3.390310078829E+01  3.430993799775E+01
  3.472165725372E+01  3.513831714076E+01  3.555997694645E+01  3.598669666981E+01
  3.641853702985E+01  3.685555947421E+01  3.729782618790E+01  3.774540010215E+01
  3.819834490338E+01  3.865672504222E+01  3.912060574272E+01  3.959005301164E+01
  4.006513364778E+01  4.054591525155E+01  4.103246623457E+01  4.152485582938E+01
  4.202315409934E+01  4.252743194853E+01  4.303776113191E+01  4.355421426549E+01
  4.407686483668E+01
</grid-data>
</grid>
<valence-charge total-charge="8" is-unscreening-charge="yes"
 rescaled-to-z-pseudo="no">
<radfunc>
<data npts="457">
  1.981792727316E-02  1.986217964111E-02  1.999454237222E-02  2.021562780373E-02
  2.054061970756E-02  2.095630601813E-02  2.148773397368E-02  2.209852610675E-02
  2.278818305933E-02  2.359629653473E-02  2.451217420210E-02  2.551368442540E-02
  2.673244252458E-02  2.801511537442E-02  2.930649744869E-02  3.080643394422E-02
  3.255022828843E-02  3.421958533150E-02  3.611540491696E-02  3.827032743732E-02
  4.072215680174E-02  4.292665158277E-02  4.537483149310E-02  4.809576839011E-02
  5.112237664638E-02  5.449197707623E-02  5.824694953229E-02  6.134482852163E-02
  6.470920725247E-02  6.836518908770E-02  7.234048668514E-02  7.666571315887E-02
  8.137470579726E-02  8.650488550192E-02  9.209765524997E-02  9.819884097051E-02
  1.048591782409E-01  1.121348481231E-01  1.173576021107E-01  1.229014053153E-01
  1.287877207655E-01  1.350395161525E-01  1.416813649426E-01  1.487395525900E-01
  1.562421877576E-01  1.642193183644E-01  1.727030521794E-01  1.817276815571E-01
  1.913298117656E-01  2.015484921900E-01  2.124253494922E-01  2.240047215795E-01
  2.363337909661E-01  2.494627158060E-01  2.634447565245E-01  2.783363955795E-01
  2.941974474321E-01  3.110911553037E-01  3.290842707323E-01  3.482471113190E-01
  3.686535913651E-01  3.903812193564E-01  4.135110554332E-01  4.381276211208E-01
  4.643187526671E-01  4.921753883736E-01  5.217912793083E-01  5.372889209150E-01
  5.532626117845E-01  5.697246772722E-01  5.866875289966E-01  6.041636434128E-01
  6.221655382583E-01  6.407057467512E-01  6.597967894174E-01  6.794511434240E-01
  6.996812092932E-01  7.204992748712E-01  7.419174764262E-01  7.639477567500E-01
  7.866018201412E-01  8.098910841484E-01  8.338266279571E-01  8.584191373081E-01
  8.836788458420E-01  9.096154727716E-01  9.362381567940E-01  9.635553861628E-01
  9.915749248573E-01  1.020303734797E+00  1.049747894066E+00  1.079912511137E+00
  1.110801635098E+00  1.142418161907E+00  1.174763736749E+00  1.207838652554E+00
  1.241641744829E+00  1.276170282923E+00  1.311419857946E+00  1.347384267554E+00
  1.384055397900E+00  1.421423103061E+00  1.459475082330E+00  1.498196755806E+00
  1.537571138778E+00  1.577578715457E+00  1.618197312676E+00  1.659401974251E+00
  1.701164836770E+00  1.743455007635E+00  1.786238446280E+00  1.829477849556E+00
  1.873132542350E+00  1.917158374600E+00  1.961507625937E+00  2.006128919277E+00
  2.050967144748E+00  2.095963395448E+00  2.141054916568E+00  2.186175069508E+00
  2.231253312664E+00  2.276215200635E+00  2.320982403631E+00  2.365472748905E+00
  2.409600286044E+00  2.453275377985E+00  2.496404819571E+00  2.538891985462E+00
  2.580637009127E+00  2.621536994595E+00  2.661486262482E+00  2.700376631698E+00
  2.738097738042E+00  2.774537390660E+00  2.809581967080E+00  2.843116847245E+00
  2.875026886566E+00  2.905196927660E+00  2.933512349948E+00  2.959859655792E+00
  2.984127091318E+00  3.006205299448E+00  3.025988002031E+00  3.043372707317E+00
  3.058261438263E+00  3.070561476486E+00  3.080186115912E+00  3.087055419463E+00
  3.091096971408E+00  3.092246617344E+00  3.090449183162E+00  3.085659163825E+00
  3.077841372375E+00  3.066971539265E+00  3.053036852001E+00  3.036036425087E+00
  3.015981690508E+00  2.992896699441E+00  2.966818326558E+00  2.937796369233E+00
  2.905893535140E+00  2.871185313189E+00  2.833759724416E+00  2.793716951380E+00
  2.751168846735E+00  2.706238323923E+00  2.659058635354E+00  2.609772545889E+00
  2.558531411910E+00  2.505494178623E+00  2.450826310463E+00  2.394698671416E+00
  2.337286373682E+00  2.278767614319E+00  2.219322246225E+00  2.159129240632E+00
  2.098363600937E+00  2.037195112428E+00  1.975787916462E+00  1.914299541960E+00
  1.852880235808E+00  1.791672337238E+00  1.730809747128E+00  1.670417496816E+00
  1.610611423322E+00  1.551497956143E+00  1.493174018792E+00  1.435727190750E+00
  1.379236567527E+00  1.323773988171E+00  1.269404367763E+00  1.216185653119E+00
  1.164169102247E+00  1.113399472910E+00  1.063915246385E+00  1.015748864634E+00
  9.689269801185E-01  9.234707163512E-01  8.793959367063E-01  8.367135196099E-01
  7.954296381253E-01  7.555460421047E-01  7.170603411923E-01  6.799662870849E-01
  6.442540535798E-01  6.099105130674E-01  5.769195082473E-01  5.452621179726E-01
  5.149169162511E-01  4.858602235477E-01  4.580663496515E-01  4.315078275023E-01
  4.061556373439E-01  3.819794210171E-01  3.589476858337E-01  3.370279979172E-01
  3.161871648381E-01  2.963914074700E-01  2.776065210653E-01  2.597980256134E-01
  2.429313056027E-01  2.269717393598E-01  2.118848181846E-01  1.976362555428E-01
  1.841920866091E-01  1.715187584858E-01  1.595832114462E-01  1.483529515714E-01
  1.377961151651E-01  1.278815253423E-01  1.185787411960E-01  1.098580999502E-01
  1.016907525092E-01  9.404869281012E-02  8.690478138529E-02  8.023276353045E-02
  7.400728247061E-02  6.820388790352E-02  6.279904029042E-02  5.777011125161E-02
  5.309538041085E-02  4.875402901898E-02  4.472613067238E-02  4.099263942725E-02
  3.753537559511E-02  3.433700949011E-02  3.138104338286E-02  2.865179190069E-02
  2.613436109900E-02  2.381462641359E-02  2.167920968949E-02  1.971545546762E-02
  1.791140669729E-02  1.625578002893E-02  1.473794082934E-02  1.334787804924E-02
  1.207617906157E-02  1.091400457785E-02  9.853063739541E-03  8.885589471421E-03
  8.004314174567E-03  7.202445827884E-03  6.473644558692E-03  5.811999735225E-03
  5.212007626603E-03  4.668549669084E-03  4.176871371124E-03  3.732561883919E-03
  3.331534258707E-03  2.970006407131E-03  2.644482776348E-03  2.351736746386E-03
  2.088793753382E-03  1.852915138829E-03  1.641582721774E-03  1.452484088032E-03
  1.283498587900E-03  1.132684031510E-03  9.982640689706E-04  8.786162405519E-04
  7.722606806702E-04  6.778494580052E-04  5.941565329552E-04  5.200683126502E-04
  4.545747829556E-04  3.967611962695E-04  3.458002934462E-04  3.009450378495E-04
  2.615218393417E-04  2.269242459445E-04  1.966070809464E-04  1.700810033713E-04
  1.469074699651E-04  1.266940771731E-04  1.090902619805E-04  9.378334095482E-05
  8.049486734917E-05  6.897728670570E-05  5.901087201622E-05  5.040092015525E-05
  4.297519198859E-05  3.658157927193E-05  3.108598218363E-05  2.637038207737E-05
  2.233109478890E-05  1.887719058138E-05  1.592906756135E-05  1.341716613861E-05
  1.128081283304E-05  9.467182448265E-06  7.930368331203E-06  6.630551116556E-06
  5.533257013524E-06  4.608697326492E-06  3.831181510833E-06  3.178596647932E-06
  2.631946779193E-06  2.174946066551E-06  1.793660246449E-06  1.476191315329E-06
  1.212400827506E-06  9.936676011105E-07  8.126760151891E-07  6.632314416343E-07
  5.400996901338E-07  4.388676537705E-07  3.558226281780E-07  2.878480393681E-07
  2.323335556211E-07  1.870977783100E-07  1.503219064270E-07  1.204929510731E-07
  9.635524046676E-08  7.686910430687E-08  6.117575974391E-08  4.856754090691E-08
  3.846272099005E-08  3.038427137136E-08  2.394198711627E-08  1.881748346100E-08
  1.475163436799E-08  1.153408284059E-08  8.994504159722E-09  6.995348290958E-09
  5.425827081202E-09  4.196946139393E-09  3.237411045577E-09  2.490263275438E-09
  1.910123434998E-09  1.460938499277E-09  1.114146123725E-09  8.471830931881E-10
  6.422768984501E-10  4.854695594157E-10  3.658313902947E-10  2.748296405617E-10
  2.058230352633E-10  1.536583451454E-10  1.143493858416E-10  8.482240189248E-11
  6.271474472016E-11  4.621619802417E-11  3.394432034363E-11  2.484683209370E-11
  1.812543240978E-11  1.317653992467E-11  9.545353762641E-12  6.890362498227E-12
  4.956019796686E-12  3.551781208836E-12  2.536078216826E-12  1.804110629695E-12
  1.278581296091E-12  9.026897754655E-13  6.348538888084E-13  4.447479677494E-13
  3.103406608586E-13  2.156886291413E-13  1.492996423567E-13  1.029229110736E-13
  7.065870948672E-14  4.830565704859E-14  3.288417722387E-14  2.229001872629E-14
  1.504339486536E-14  1.010812195649E-14  6.761783121678E-15  4.502925931462E-15
  2.985022326407E-15  1.969679923905E-15  1.293644150357E-15  8.456304220835E-16
  5.501335907482E-16  3.561659553492E-16  2.294604673346E-16  1.470986803410E-16
  9.382724037658E-17  5.954451831634E-17  3.759414699531E-17  2.361220957440E-17
  1.475239531479E-17  9.167873048009E-18  5.666614301231E-18  0.000000000000E+00
  0.000000000000E+00  0.000000000000E+00  0.000000000000E+00  0.000000000000E+00
  0.000000000000E+00  0.000000000000E+00  0.000000000000E+00  0.000000000000E+00
  0.000000000000E+00  0.000000000000E+00  0.000000000000E+00  0.000000000000E+00
  0.000000000000E+00  0.000000000000E+00  0.000000000000E+00  0.000000000000E+00
  0.000000000000E+00  0.000000000000E+00  0.000000000000E+00  0.000000000000E+00
  0.000000000000E+00  0.000000000000E+00  0.000000000000E+00  0.000000000000E+00
  0.000000000000E+00  0.000000000000E+00  0.000000000000E+00  0.000000000000E+00
  0.000000000000E+00  0.000000000000E+00  0.000000000000E+00  0.000000000000E+00
  0.000000000000E+00  0.000000000000E+00  0.000000000000E+00  0.000000000000E+00
  0.000000000000E+00  0.000000000000E+00  0.000000000000E+00  0.000000000000E+00
  0.000000000000E+00  0.000000000000E+00  0.000000000000E+00  0.000000000000E+00
  0.000000000000E+00  0.000000000000E+00  0.000000000000E+00  0.000000000000E+00
  0.000000000000E+00  0.000000000000E+00  0.000000000000E+00  0.000000000000E+00
  0.000000000000E+00
</data>
</radfunc>
</valence-charge>
<pseudocore-charge matching-radius="1.05368374940"
 number-of-continuous-derivatives="4">
<annotation model-charge-form="Teter function with specified parameters" />
<radfunc>
<data npts="290">
  2.257471996244E+01  2.257366157458E+01  2.257049759722E+01  2.256521866131E+01
  2.255747195649E+01  2.254758624810E+01  2.253498507363E+01  2.252055292245E+01
  2.250432203983E+01  2.248538960762E+01  2.246404349144E+01  2.244083447327E+01
  2.241277494448E+01  2.238345783512E+01  2.235415870700E+01  2.232039522911E+01
  2.228149507570E+01  2.224460149489E+01  2.220310233407E+01  2.215643242600E+01
  2.210395987658E+01  2.205733232376E+01  2.200614234025E+01  2.194995519918E+01
  2.188829720729E+01  2.182065273426E+01  2.174646113132E+01  2.168615652537E+01
  2.162155206518E+01  2.155235504084E+01  2.147825495017E+01  2.139892275340E+01
  2.131401015411E+01  2.122314891949E+01  2.112595025493E+01  2.102200425097E+01
  2.091087942318E+01  2.079212236895E+01  2.070847696136E+01  2.062108220082E+01
  2.052978736315E+01  2.043443740649E+01  2.033487303486E+01  2.023093078780E+01
  2.012244315920E+01  2.000923874817E+01  1.989114244565E+01  1.976797566022E+01
  1.963955658705E+01  1.950570052397E+01  1.936622023915E+01  1.922092639490E+01
  1.906962803234E+01  1.891213312202E+01  1.874824918562E+01  1.857778399414E+01
  1.840054634802E+01  1.821634694482E+01  1.802499934001E+01  1.782632100643E+01
  1.762013449798E+01  1.740626872265E+01  1.718456033001E+01  1.695485521747E+01
  1.671701015944E+01  1.647089456238E+01  1.621639234817E+01  1.608596444689E+01
  1.595340396663E+01  1.581870139745E+01  1.568184853712E+01  1.554283856488E+01
  1.540166611716E+01  1.525832736514E+01  1.511282009403E+01  1.496514378414E+01
  1.481529969343E+01  1.466329094170E+01  1.450912259611E+01  1.435280175804E+01
  1.419433765099E+01  1.403374170960E+01  1.387102766939E+01  1.370621165713E+01
  1.353931228172E+01  1.337035072512E+01  1.319935083340E+01  1.302633920733E+01
  1.285134529250E+01  1.267440146842E+01  1.249554313647E+01  1.231480880624E+01
  1.213224017993E+01  1.194788223430E+01  1.176178330001E+01  1.157399513755E+01
  1.138457300956E+01  1.119357574898E+01  1.100106582238E+01  1.080710938811E+01
  1.061177634856E+01  1.041514039607E+01  1.021727905168E+01  1.001827369632E+01
  9.818209593594E+00  9.617175903621E+00  9.415265687144E+00  9.212575899285E+00
  9.009207372187E+00  8.805264785851E+00  8.600856626442E+00  8.396095131332E+00
  8.191096220181E+00  7.985979411332E+00  7.780867722842E+00  7.575887557465E+00
  7.371168570945E+00  7.166843523007E+00  6.963048110467E+00  6.759920781946E+00
  6.557602533703E+00  6.356236686188E+00  6.155968640990E+00  5.956945617917E+00
  5.759316372049E+00  5.563230890721E+00  5.368840070479E+00  5.176295374187E+00
  4.985748468607E+00  4.797350842886E+00  4.611253408578E+00  4.427606081956E+00
  4.246557349562E+00  4.068253818115E+00  3.892839750102E+00  3.720456586546E+00
  3.551242458675E+00  3.385331690419E+00  3.222854293854E+00  3.063935459949E+00
  2.908695047174E+00  2.757247070737E+00  2.609699195413E+00  2.466152235155E+00
  2.326699662823E+00  2.191427133571E+00  2.060412025559E+00  1.933723001831E+00
  1.811419597253E+00  1.693551834537E+00  1.580159873397E+00  1.471273696897E+00
  1.366912839033E+00  1.267086157510E+00  1.171791655554E+00  1.081016356432E+00
  9.947362341266E-01  9.129162033359E-01  8.355101716066E-01  7.624611560430E-01
  6.937014665458E-01  6.291529570284E-01  5.687273454765E-01  5.123266030833E-01
  4.598434120049E-01  4.111616905490E-01  3.661571838346E-01  3.246981171541E-01
  2.866459084387E-01  2.518559353852E-01  2.201783519604E-01  1.914589481666E-01
  1.655400461523E-01  1.422614249924E-01  1.214612657645E-01  1.029771079288E-01
  8.664680749154E-02  7.230948702270E-02  5.980646731340E-02  4.898217032022E-02
  3.968498306584E-02  3.176807235699E-02  2.509014055425E-02  1.951611318857E-02
  1.491774996926E-02  1.117417166640E-02  8.172296469819E-03  5.807180716574E-03
  3.982260321966E-03  2.609490823285E-03  1.609385623807E-03  9.109537738766E-04
  4.515404093103E-04  1.765747433123E-04  3.923223222916E-05  1.916118725636E-08
  2.628937564484E-05  9.170417260146E-05  1.756474164638E-04  2.626087193847E-04
  3.415479902615E-04  4.052547842820E-04  4.497156591817E-04  4.735021594442E-04
  4.771911118961E-04  4.628276448697E-04  4.334397709559E-04  3.926115460426E-04
  3.441197927193E-04  2.916372227705E-04  2.385025884070E-04  1.875563177314E-04
  1.410380315498E-04  1.005404792468E-04  6.701284841584E-05  4.080516366903E-05
  2.174464778163E-05  9.234508556261E-06  2.365652278609E-06  3.230144439348E-08
  1.043379124188E-06  4.222760579931E-06  8.493009464981E-06  1.293891891206E-05
  1.684896276107E-05  1.973451903456E-05  2.132834781582E-05  2.156518910293E-05
  2.054840947698E-05  1.850730895257E-05  1.574996880889E-05  1.261637670299E-05
  9.436038562682E-06  6.493439895210E-06  4.003640509428E-06  2.099083326794E-06
  8.274865189170E-07  1.595839632287E-07  4.584858636083E-09  2.306193654395E-07
  6.871720432331E-07  1.226590457672E-06  1.722165781650E-06  2.080952672838E-06
  2.250335221565E-06  2.218244019683E-06  2.007771158587E-06  1.667609630286E-06
  1.260179110039E-06  8.494441046062E-07  4.902771397565E-07  2.208058322676E-07
  5.858262355127E-08  7.304216549279E-10  0.000000000000E+00  0.000000000000E+00
  0.000000000000E+00  0.000000000000E+00  0.000000000000E+00  0.000000000000E+00
  0.000000000000E+00  0.000000000000E+00  0.000000000000E+00  0.000000000000E+00
  0.000000000000E+00  0.000000000000E+00  0.000000000000E+00  0.000000000000E+00
  0.000000000000E+00  0.000000000000E+00  0.000000000000E+00  0.000000000000E+00
  0.000000000000E+00  0.000000000000E+00  0.000000000000E+00  0.000000000000E+00
  0.000000000000E+00  0.000000000000E+00  0.000000000000E+00  0.000000000000E+00
  0.000000000000E+00  0.000000000000E+00  0.000000000000E+00  0.000000000000E+00
  0.000000000000E+00  0.000000000000E+00  0.000000000000E+00  0.000000000000E+00
  0.000000000000E+00  0.000000000000E+00
</data>
</radfunc>
</pseudocore-charge>
<semilocal-potentials set="scalar_relativistic">
<slps n="4" l="s" rc="1.75983649523" eref="-0.853470560680">
<radfunc>
<data npts="290">
  4.450370101938E+01  4.447977452497E+01  4.440836533762E+01  4.428961356977E+01
  4.411622765981E+01  4.389647228152E+01  4.361877201997E+01  4.330400467259E+01
  4.295412610298E+01  4.255141896182E+01  4.210420616263E+01  4.162599141260E+01
  4.105870181100E+01  4.047832307933E+01  3.991050194404E+01  3.927079147248E+01
  3.855248511951E+01  3.788905484562E+01  3.716271191193E+01  3.636998757621E+01
  3.550777898695E+01  3.476621682110E+01  3.397747395141E+01  3.314083452327E+01
  3.225595406104E+01  3.132290984670E+01  3.034224794313E+01  2.957611765871E+01
  2.878443059649E+01  2.796801017272E+01  2.712786186221E+01  2.626517462560E+01
  2.538131971755E+01  2.447784669653E+01  2.355647652191E+01  2.261909169867E+01
  2.166772351349E+01  2.070453649361E+01  2.005696741968E+01  1.940585652233E+01
  1.875191942673E+01  1.809588458996E+01  1.743849015842E+01  1.678048074574E+01
  1.612260416297E+01  1.546560813379E+01  1.481023702773E+01  1.415722864420E+01
  1.350731107963E+01  1.286119970837E+01  1.221959430680E+01  1.158317634735E+01
  1.095260648704E+01  1.032852227172E+01  9.711536074454E+00  9.102233282624E+00
  8.501170745071E+00  7.908875486762E+00  7.325843694925E+00  6.752539976966E+00
  6.189396887049E+00  5.636814714931E+00  5.095161527568E+00  4.564773451190E+00
  4.045955179003E+00  3.538980687418E+00  3.044094141743E+00  2.801252260111E+00
  2.561510970624E+00  2.324892912168E+00  2.091419087167E+00  1.861108906131E+00
  1.633980233563E+00  1.410049435041E+00  1.189331425285E+00  9.718397169983E-01
  7.575864703102E-01  5.465825426044E-01  3.388375385527E-01  1.343598601530E-01
 -6.684324341633E-02 -2.647656263198E-01 -4.594021971512E-01 -6.507488707703E-01
 -8.388025210727E-01 -1.023560934871E+00 -1.205022767064E+00 -1.383187497264E+00
 -1.558055388046E+00 -1.729627444982E+00 -1.897905378612E+00 -2.062891568499E+00
 -2.224589029501E+00 -2.383001380401E+00 -2.538132815001E+00 -2.689988075795E+00
 -2.838572430325E+00 -2.983891650281E+00 -3.125951993437E+00 -3.264760188458E+00
 -3.400323422619E+00 -3.532649332440E+00 -3.661745997243E+00 -3.787621935576E+00
 -3.910286104466E+00 -4.029747901392E+00 -4.146017168880E+00 -4.259104201538E+00
 -4.369019755369E+00 -4.475775059112E+00 -4.579381827343E+00 -4.679852275030E+00
 -4.777199133159E+00 -4.871435665038E+00 -4.962575682787E+00 -5.050633563527E+00
 -5.135624264653E+00 -5.217563337597E+00 -5.296466939358E+00 -5.372351841081E+00
 -5.445235432860E+00 -5.515135723937E+00 -5.582071337370E+00 -5.646061498254E+00
 -5.707126014503E+00 -5.765285249193E+00 -5.820560083463E+00 -5.872971868962E+00
 -5.922542368858E+00 -5.969293686466E+00 -6.013248180625E+00 -6.054428367065E+00
 -6.092856805111E+00 -6.128555969266E+00 -6.161548105434E+00 -6.191855071785E+00
 -6.219498164597E+00 -6.244497929795E+00 -6.266873961294E+00 -6.286644687824E+00
 -6.303827150419E+00 -6.318436773431E+00 -6.330487132623E+00 -6.339989724686E+00
 -6.346953743364E+00 -6.351385868304E+00 -6.353290073693E+00 -6.352667464778E+00
 -6.349516151410E+00 -6.343831168783E+00 -6.335604456634E+00 -6.324824909113E+00
 -6.311478508503E+00 -6.295548556734E+00 -6.277016019297E+00 -6.255859996520E+00
 -6.232058337292E+00 -6.205588410020E+00 -6.176428044823E+00 -6.144556659675E+00