<?xml version="1.0" encoding="UTF-8" ?>
<psml version="1.1" energy_unit="hartree" length_unit="bohr"
 uuid="d553dc20-23d1-11e8-49ca-bdc77fbf09cc"
 xmlns="http://esl.cecam.org/PSML/ns/1.1">
<provenance creator="ONCVPSP-3.3.0+psml-3.3.0-73 (scalar-relativistic)"
 date="2018-03-09">
<annotation action="semilocal-pseudopotential-generation"
 action-cont="projectors-generation" />
<input-file name="oncvpsp-input">
<![CDATA[# atsym z nc nv iexc psfile
Li 3 0 2 -001012 upf
# n l f
1 0 2.0
2 0 1.0
# lmax
1
# l rc ep ncon nbas qcut
0 1.4 0.0 4 8 8.6
1 1.1 0.0 4 8 9.0
# lloc lpopt rc5 dvloc0
4 5 1.1 0.0
# l nproj debl
0 2 1.0
1 2 1.0
# icmod fcfact rcfact
0 0.25 0.0
# epsh1 epsh2 depsh
-12.0 12.0 0.02
# rlmax drl
4.0 0.01
 0
]]>
</input-file>
</provenance>
<pseudo-atom-spec atomic-label="Li" atomic-number="3" z-pseudo="3"
 flavor="Hamann&apos;s oncvpsp" relativity="scalar" spin-dft="no"
 core-corrections="no">
<annotation pseudo-energy="-7.04107669125" />
<exchange-correlation>
<annotation oncvpsp-xc-code="-1012" oncvpsp-xc-type="libxc-interface" />
<libxc-info number-of-functionals="2">
<functional name="Slater exchange (LDA)" type="exchange" id="1" />
<functional name="Perdew &amp; Wang (LDA)" type="correlation" id="12" />
</libxc-info>
</exchange-correlation>
<valence-configuration total-valence-charge="3">
<shell n="1" l="s" occupation="2" />
<shell n="2" l="s" occupation="1" />
</valence-configuration>
</pseudo-atom-spec>
<grid npts="457">
<annotation type="sampled from oncvpsp log grid"
 recipe="r(i:1..N) = r1*exp(a*(i-1)) + r=0; resampled"
 recipe-cont="r1: scale; a: step" scale="0.166666666667E-03"
 step="0.119285708653E-01" delta="0.500000000000E-02" rmax="44.2430787916" />
<grid-data>
  0.000000000000E+00  5.052139405559E-03  1.009125198494E-02  1.513848713291E-02
  2.015648390690E-02  2.528392618201E-02  3.060079530245E-02  3.573381431355E-02
  4.074412671733E-02  4.590607257001E-02  5.110869023733E-02  5.622621532664E-02
  6.185615939828E-02  6.724291609153E-02  7.309877962804E-02  7.852233426508E-02
  8.434828884711E-02  8.953211401853E-02  9.503452352372E-02  1.008750967224E-01
  1.070746162705E-01  1.123074526400E-01  1.177960226038E-01  1.235528241010E-01
  1.295909658570E-01  1.359241972326E-01  1.425669395327E-01  1.477611846294E-01
  1.531446754392E-01  1.587243068888E-01  1.645072251130E-01  1.705008366068E-01
  1.767128177115E-01  1.831511244461E-01  1.898240026970E-01  1.967399987792E-01
  2.039079703814E-01  2.113370979113E-01  2.164396208033E-01  2.216653390080E-01
  2.270172269530E-01  2.324983308805E-01  2.381117705813E-01  2.438607411702E-01
  2.497485149050E-01  2.557784430489E-01  2.619539577779E-01  2.682785741345E-01
  2.747558920284E-01  2.813895982855E-01  2.881834687465E-01  2.951413704159E-01
  3.022672636632E-01  3.095652044771E-01  3.170393467740E-01  3.246939447625E-01
  3.325333553649E-01  3.405620406968E-01  3.487845706074E-01  3.572056252801E-01
  3.658299978969E-01  3.746625973661E-01  3.837084511169E-01  3.929727079607E-01
  4.024606410217E-01  4.121776507385E-01  4.221292679380E-01  4.271948191532E-01
  4.323211569831E-01  4.375090108669E-01  4.427591189973E-01  4.480722284252E-01
  4.534490951663E-01  4.588904843083E-01  4.643971701200E-01  4.699699361615E-01
  4.756095753954E-01  4.813168903001E-01  4.870926929837E-01  4.929378052995E-01
  4.988530589631E-01  5.048392956707E-01  5.108973672188E-01  5.170281356254E-01
  5.232324732529E-01  5.295112629319E-01  5.358653980871E-01  5.422957828641E-01
  5.488033322585E-01  5.553889722456E-01  5.620536399126E-01  5.687982835915E-01
  5.756238629946E-01  5.825313493505E-01  5.895217255428E-01  5.965959862493E-01
  6.037551380843E-01  6.110001997413E-01  6.183322021382E-01  6.257521885638E-01
  6.332612148266E-01  6.408603494045E-01  6.485506735974E-01  6.563332816805E-01
  6.642092810607E-01  6.721797924334E-01  6.802459499426E-01  6.884089013419E-01
  6.966698081580E-01  7.050298458559E-01  7.134902040062E-01  7.220520864543E-01
  7.307167114917E-01  7.394853120296E-01  7.483591357740E-01  7.573394454033E-01
  7.664275187481E-01  7.756246489731E-01  7.849321447608E-01  7.943513304979E-01
  8.038835464639E-01  8.135301490214E-01  8.232925108097E-01  8.331720209394E-01
  8.431700851907E-01  8.532881262130E-01  8.635275837275E-01  8.738899147323E-01
  8.843765937091E-01  8.949891128336E-01  9.057289821876E-01  9.165977299738E-01
  9.275969027335E-01  9.387280655663E-01  9.499928023531E-01  9.613927159813E-01
  9.729294285731E-01  9.846045817160E-01  9.964198366966E-01  1.008376874737E+00
  1.020477397234E+00  1.032723126001E+00  1.045115803513E+00  1.057657193155E+00
  1.070349079473E+00  1.083193268426E+00  1.096191587647E+00  1.109345886699E+00
  1.122658037340E+00  1.136129933788E+00  1.149763492993E+00  1.163560654909E+00
  1.177523382768E+00  1.191653663361E+00  1.205953507321E+00  1.220424949409E+00
  1.235070048802E+00  1.249890889388E+00  1.264889580060E+00  1.280068255021E+00
  1.295429074081E+00  1.310974222970E+00  1.326705913646E+00  1.342626384610E+00
  1.358737901225E+00  1.375042756040E+00  1.391543269112E+00  1.408241788342E+00
  1.425140689802E+00  1.442242378079E+00  1.459549286616E+00  1.477063878056E+00
  1.494788644592E+00  1.512726108328E+00  1.530878821627E+00  1.549249367487E+00
  1.567840359897E+00  1.586654444216E+00  1.605694297546E+00  1.624962629117E+00
  1.644462180666E+00  1.664195726834E+00  1.684166075556E+00  1.704376068463E+00
  1.724828581284E+00  1.745526524260E+00  1.766472842551E+00  1.787670516662E+00
  1.809122562861E+00  1.830832033616E+00  1.852802018019E+00  1.875035642235E+00
  1.897536069942E+00  1.920306502782E+00  1.943350180815E+00  1.966670382985E+00
  1.990270427581E+00  2.014153672711E+00  2.038323516784E+00  2.062783398985E+00
  2.087536799773E+00  2.112587241371E+00  2.137938288267E+00  2.163593547726E+00
  2.189556670299E+00  2.215831350343E+00  2.242421326547E+00  2.269330382465E+00
  2.296562347055E+00  2.324121095219E+00  2.352010548362E+00  2.380234674942E+00
  2.408797491042E+00  2.437703060934E+00  2.466955497665E+00  2.496558963637E+00
  2.526517671201E+00  2.556835883255E+00  2.587517913855E+00  2.618568128821E+00
  2.649990946367E+00  2.681790837723E+00  2.713972327776E+00  2.746539995709E+00
  2.779498475658E+00  2.812852457365E+00  2.846606686854E+00  2.880765967096E+00
  2.915335158701E+00  2.950319180606E+00  2.985723010773E+00  3.021551686902E+00
  3.057810307145E+00  3.094504030831E+00  3.131638079201E+00  3.169217736151E+00
  3.207248348985E+00  3.245735329173E+00  3.284684153123E+00  3.324100362960E+00
  3.363989567316E+00  3.404357442124E+00  3.445209731429E+00  3.486552248206E+00
  3.528390875185E+00  3.570731565687E+00  3.613580344475E+00  3.656943308609E+00
  3.700826628312E+00  3.745236547852E+00  3.790179386426E+00  3.835661539063E+00
  3.881689477532E+00  3.928269751262E+00  3.975408988278E+00  4.023113896137E+00
  4.071391262890E+00  4.120247958045E+00  4.169690933542E+00  4.219727224744E+00
  4.270363951441E+00  4.321608318858E+00  4.373467618685E+00  4.425949230109E+00
  4.479060620870E+00  4.532809348321E+00  4.587203060501E+00  4.642249497227E+00
  4.697956491193E+00  4.754331969088E+00  4.811383952717E+00  4.869120560149E+00
  4.927550006871E+00  4.986680606954E+00  5.046520774237E+00  5.107079023528E+00
  5.168363971810E+00  5.230384339472E+00  5.293148951546E+00  5.356666738964E+00
  5.420946739832E+00  5.485998100710E+00  5.551830077918E+00  5.618452038853E+00
  5.685873463319E+00  5.754103944879E+00  5.823153192218E+00  5.893031030524E+00
  5.963747402891E+00  6.035312371725E+00  6.107736120186E+00  6.181028953628E+00
  6.255201301072E+00  6.330263716685E+00  6.406226881285E+00  6.483101603860E+00
  6.560898823107E+00  6.639629608984E+00  6.719305164292E+00  6.799936826263E+00
  6.881536068178E+00  6.964114500997E+00  7.047683875009E+00  7.132256081509E+00
  7.217843154487E+00  7.304457272341E+00  7.392110759609E+00  7.480816088724E+00
  7.570585881789E+00  7.661432912370E+00  7.753370107319E+00  7.846410548606E+00
  7.940567475190E+00  8.035854284892E+00  8.132284536311E+00  8.229871950746E+00
  8.328630414155E+00  8.428573979125E+00  8.529716866875E+00  8.632073469277E+00
  8.735658350908E+00  8.840486251119E+00  8.946572086133E+00  9.053930951166E+00
  9.162578122580E+00  9.272529060051E+00  9.383799408772E+00  9.496405001677E+00
  9.610361861697E+00  9.725686204038E+00  9.842394438486E+00  9.960503171748E+00
  1.008002920981E+01  1.020098956033E+01  1.032340143505E+01  1.044728225227E+01
  1.057264963930E+01  1.069952143497E+01  1.082791569219E+01  1.095785068050E+01
  1.108934488866E+01  1.122241702733E+01  1.135708603165E+01  1.149337106403E+01
  1.163129151680E+01  1.177086701500E+01  1.191211741918E+01  1.205506282821E+01
  1.219972358215E+01  1.234612026514E+01  1.249427370832E+01  1.264420499282E+01
  1.279593545273E+01  1.294948667817E+01  1.310488051830E+01  1.326213908452E+01
  1.342128475354E+01  1.358234017058E+01  1.374532825263E+01  1.391027219166E+01
  1.407719545796E+01  1.424612180345E+01  1.441707526510E+01  1.459008016828E+01
  1.476516113030E+01  1.494234306386E+01  1.512165118063E+01  1.530311099479E+01
  1.548674832673E+01  1.567258930665E+01  1.586066037833E+01  1.605098830287E+01
  1.624360016251E+01  1.643852336446E+01  1.663578564483E+01  1.683541507257E+01
  1.703744005344E+01  1.724188933408E+01  1.744879200609E+01  1.765817751016E+01
  1.787007564028E+01  1.808451654797E+01  1.830153074654E+01  1.852114911550E+01
  1.874340290489E+01  1.896832373975E+01  1.919594362462E+01  1.942629494812E+01
  1.965941048750E+01  1.989532341335E+01  2.013406729431E+01  2.037567610184E+01
  2.062018421506E+01  2.086762642564E+01  2.111803794275E+01  2.137145439806E+01
  2.162791185084E+01  2.188744679305E+01  2.215009615457E+01  2.241589730842E+01
  2.268488807612E+01  2.295710673303E+01  2.323259201383E+01  2.351138311800E+01
  2.379351971541E+01  2.407904195200E+01  2.436799045542E+01  2.466040634089E+01
  2.495633121698E+01  2.525580719158E+01  2.555887687788E+01  2.586558340041E+01
  2.617597040122E+01  2.649008204603E+01  2.680796303059E+01  2.712965858695E+01
  2.745521449000E+01  2.778467706388E+01  2.811809318864E+01  2.845551030691E+01
  2.879697643059E+01  2.914254014776E+01  2.949225062953E+01  2.984615763708E+01
  3.020431152873E+01  3.056676326707E+01  3.093356442628E+01  3.130476719939E+01
  3.168042440579E+01  3.206058949866E+01  3.244531657264E+01  3.283466037151E+01
  3.322867629597E+01  3.362742041152E+01  3.403094945646E+01  3.443932084994E+01
  3.485259270014E+01  3.527082381254E+01  3.569407369829E+01  3.612240258267E+01
  3.655587141366E+01  3.699454187062E+01  3.743847637307E+01  3.788773808955E+01
  3.834239094662E+01  3.880249963798E+01  3.926812963364E+01  3.973934718924E+01
  4.021621935551E+01  4.069881398778E+01  4.118719975563E+01  4.168144615270E+01
  4.218162350653E+01  4.268780298861E+01  4.320005662447E+01  4.371845730397E+01
  4.424307879162E+01
</grid-data>
</grid>
<valence-charge total-charge="3" is-unscreening-charge="yes"
 rescaled-to-z-pseudo="no">
<radfunc>
<data npts="457">
  3.468199584846E+01  3.467808515631E+01  3.466639568557E+01  3.464689797066E+01
  3.461979859153E+01  3.458418194622E+01  3.453881558442E+01  3.448690375727E+01
  3.442858109043E+01  3.436062995542E+01  3.428411781741E+01  3.420105103555E+01
  3.410079446203E+01  3.399624383723E+01  3.387311756803E+01  3.375037707849E+01
  3.360931857343E+01  3.347588742308E+01  3.332620762262E+01  3.315839349051E+01
  3.297036539459E+01  3.280385945494E+01  3.262168600015E+01  3.242248053617E+01
  3.220478263988E+01  3.196703418661E+01  3.170757881795E+01  3.149769084959E+01
  3.127383358098E+01  3.103520366889E+01  3.078097089933E+01  3.051028051924E+01
  3.022225624903E+01  2.991600407112E+01  2.959061689624E+01  2.924518021599E+01
  2.887877885511E+01  2.849050494043E+01  2.821906311546E+01  2.793724566572E+01
  2.764480174032E+01  2.734148917739E+01  2.702707638056E+01  2.670134434863E+01
  2.636408886181E+01  2.601512282703E+01  2.565427878322E+01  2.528141156564E+01
  2.489640112628E+01  2.449915550502E+01  2.408961394330E+01  2.366775012879E+01
  2.323357555620E+01  2.278714298506E+01  2.232854997093E+01  2.185794244162E+01
  2.137551828458E+01  2.088153090605E+01  2.037629271643E+01  1.986017849002E+01
  1.933362854082E+01  1.879715164965E+01  1.825132767126E+01  1.769680974413E+01
  1.713432601993E+01  1.656468082493E+01  1.598875516161E+01  1.569873338873E+01
  1.540750645672E+01  1.511520580501E+01  1.482196746126E+01  1.452793195413E+01
  1.423324420924E+01  1.393805342771E+01  1.364251294677E+01  1.334678008183E+01
  1.305101594951E+01  1.275538527135E+01  1.246005615759E+01  1.216519987109E+01
  1.187099057090E+01  1.157760503559E+01  1.128522236631E+01  1.099402366961E+01
  1.070419172053E+01  1.041591060602E+01  1.012936534949E+01  9.844741516962E+00
  9.562224805811E+00  9.282000616896E+00  9.004253611349E+00  8.729167253265E+00
  8.456923339766E+00  8.187701520085E+00  7.921678805474E+00  7.659029071900E+00
  7.399922557680E+00  7.144525358327E+00  6.892998921066E+00  6.645499541601E+00
  6.402177865818E+00  6.163178399285E+00  5.928639027430E+00  5.698690549410E+00
  5.473456228728E+00  5.253051363654E+00  5.037582880572E+00  4.827148953292E+00
  4.621838651357E+00  4.421731620274E+00  4.226897796490E+00  4.037397159780E+00
  3.853279525542E+00  3.674584379265E+00  3.501340755206E+00  3.333567161024E+00
  3.171271549790E+00  3.014451340488E+00  2.863093487729E+00  2.717174601016E+00
  2.576661113510E+00  2.441509499790E+00  2.311666541715E+00  2.187069641014E+00
  2.067647176838E+00  1.953318906046E+00  1.843996403615E+00  1.739583540155E+00
  1.639976993141E+00  1.545066788159E+00  1.454736866153E+00  1.368865672408E+00
  1.287326762821E+00  1.209989422845E+00  1.136719294405E+00  1.067379006056E+00
  1.001828801685E+00  9.399271631345E-01  8.815314222903E-01  8.264983583694E-01
  7.746847764210E-01  7.259480633501E-01  6.801467181364E-01  6.371408533111E-01
  5.967926651718E-01  5.589668706551E-01  5.235311092341E-01  4.903563086515E-01
  4.593170137332E-01  4.302916779356E-01  4.031629176544E-01  3.778177296555E-01
  3.541476722679E-01  3.320490112015E-01  3.114228310115E-01  2.921751133236E-01
  2.742167829672E-01  2.574637231356E-01  2.418367606163E-01  2.272616220249E-01
  2.136688618458E-01  2.009937629544E-01  1.891762101972E-01  1.781605375536E-01
  1.678953494306E-01  1.583333167667E-01  1.494309488670E-01  1.411483422671E-01
  1.334488007244E-01  1.262980322453E-01  1.196631715648E-01  1.135127585290E-01
  1.078167015140E-01  1.025462480344E-01  9.767395395944E-02  9.317365182899E-02
  8.902041835228E-02  8.519054119283E-02  8.166148514767E-02  7.841185782600E-02
  7.542137493152E-02  7.267082525125E-02  7.014203545119E-02  6.781783477696E-02
  6.568201975437E-02  6.371931898126E-02  6.191535809833E-02  6.025662502217E-02
  5.873043551900E-02  5.732489919288E-02  5.602888595669E-02  5.483199304885E-02
  5.372451265326E-02  5.269740017413E-02  5.174224321192E-02  5.085123128094E-02
  5.001712630354E-02  4.923323391061E-02  4.849337557296E-02  4.779186158300E-02
  4.712346490163E-02  4.648339588076E-02  4.586727786753E-02  4.527112369293E-02
  4.469131304327E-02  4.412457071027E-02  4.356794571234E-02  4.301879127678E-02
  4.247474567056E-02  4.193371386492E-02  4.139385001728E-02  4.085354075235E-02
  4.031138922279E-02  3.976619992876E-02  3.921696427460E-02  3.866284684019E-02
  3.810317234377E-02  3.753741327294E-02  3.696517815967E-02  3.638620047572E-02
  3.580032812424E-02  3.520751350383E-02  3.460780412135E-02  3.400133373015E-02
  3.338831397090E-02  3.276902649228E-02  3.214381552999E-02  3.151308092235E-02
  3.087727154222E-02  3.023687912489E-02  2.959243247295E-02  2.894449201954E-02
  2.829364473214E-02  2.764049934016E-02  2.698568186996E-02  2.632983147203E-02
  2.567359652563E-02  2.501763100726E-02  2.436259110960E-02  2.370913209885E-02
  2.305790539872E-02  2.240955589015E-02  2.176471941654E-02  2.112402048487E-02
  2.048807015356E-02  1.985746409883E-02  1.923278085134E-02  1.861458019587E-02
  1.800340172706E-02  1.739976355440E-02  1.680416115062E-02  1.621706633736E-02
  1.563892640274E-02  1.507016334552E-02  1.451117324086E-02  1.396232572289E-02
  1.342396357941E-02  1.289640245436E-02  1.237993065367E-02  1.187480905017E-02
  1.138127108362E-02  1.089952285155E-02  1.042974328695E-02  9.972084418862E-03
  9.526671711667E-03  9.093604479246E-03  8.672956369881E-03  8.264775917886E-03
  7.869087157906E-03  7.485890297798E-03  7.115162445965E-03  6.756858389017E-03
  6.410911415575E-03  6.077234182033E-03  5.755719616070E-03  5.446241853693E-03
  5.148657205582E-03  4.862805148524E-03  4.588509337497E-03  4.325578635465E-03
  4.073808154163E-03  3.832980304454E-03  3.602865850859E-03  3.383224966570E-03
  3.173808285097E-03  2.974357944775E-03  2.784608622481E-03  2.604288553046E-03
  2.433120530975E-03  2.270822891246E-03  2.117110466136E-03  1.971695515189E-03
  1.834288625620E-03  1.704599580680E-03  1.582338193671E-03  1.467215105562E-03
  1.358942544333E-03  1.257235044445E-03  1.161810125030E-03  1.072388925659E-03
  9.886967987634E-04  9.104638580313E-04  8.374254823330E-04  7.693227749652E-04
  7.059029782280E-04  6.469198435741E-04  5.921339577840E-04  5.413130258286E-04
  4.942321112768E-04  4.506738352919E-04  4.104285354355E-04  3.732943856577E-04
  3.390774789976E-04  3.075918746536E-04  2.786596111956E-04  2.521106877961E-04
  2.277830154372E-04  2.055223401241E-04  1.851821401825E-04  1.666234997569E-04
  1.497149606453E-04  1.343323546095E-04  1.203586182913E-04  1.076835928394E-04
  9.620381031341E-05  8.582226888124E-05  7.644819876514E-05  6.799682081665E-05
  6.038909952159E-05  5.355149214481E-05  4.741569562818E-05  4.191839275291E-05
  3.700099897012E-05  3.260941119378E-05  2.869375973749E-05  2.520816446377E-05
  2.211049610109E-05  1.936214357211E-05  1.692778806658E-05  1.477518448536E-05
  1.287495077863E-05  1.120036560245E-05  9.727174623732E-06  8.433405714835E-06
  7.299193196525E-06  6.306611210883E-06  5.439516235541E-06  4.683398686520E-06
  4.025243499393E-06  3.453399527404E-06  2.957457550374E-06  2.528136649621E-06
  2.157178671469E-06  1.837250474925E-06  1.561853637544E-06  1.325241276922E-06
  1.122341633438E-06  9.486880522811E-07  8.003549992157E-07  6.738997444175E-07
  5.663093517780E-07  4.749526168813E-07  3.975366050434E-07  3.320674510181E-07
  2.768150938682E-07  2.302816337484E-07  1.911730116607E-07  1.583737283316E-07
  1.309243339840E-07  1.080014367012E-07  8.889999310408E-08  7.301766101093E-08
  5.984100946563E-08  4.893339687134E-08  3.992434284976E-08  3.250023376495E-08
  2.639621553955E-08  2.138914039475E-08  1.729144642740E-08  1.394586047387E-08
  1.122082548970E-08  9.006563696498E-09  7.211696021526E-09  5.760346897170E-09
  4.589671320360E-09  3.647748223391E-09  2.891790709790E-09  2.286629596398E-09
  1.803432012559E-09  1.418621577227E-09  1.112970943176E-09  8.708413026743E-10
  6.795468285766E-10  5.288250152196E-10  4.103965200738E-10  3.176004231669E-10
  2.450928485959E-10  1.885986606442E-10  1.447074837806E-10  1.107066267406E-10
  8.444463949602E-11  6.422021971715E-11  4.869203187892E-11  3.680572511661E-11
  2.773505119984E-11  2.083450577629E-11  1.560135699884E-11  1.164529700703E-11
  8.664263375661E-12  6.425238253006E-12  4.749050075958E-12  3.498383069923E-12
  2.568348935817E-12  1.879098125531E-12  1.370049145279E-12  9.953970237162E-13
  7.206295210230E-13  5.198344497913E-13  3.736258347017E-13  2.675524105366E-13
  1.908806998040E-13  1.356679166416E-13  9.605828735484E-14  6.775094826738E-14
  4.759910980047E-14  3.330926126545E-14  2.321632302041E-14  1.611622904405E-14
  1.114176541970E-14  7.670857998140E-15  5.259103653255E-15  3.590340235630E-15
  2.440582725645E-15  1.651821830343E-15  1.113068841311E-15  7.467017014635E-16
  4.986724802669E-16  3.315151485852E-16  2.193751104796E-16  1.444918383884E-16
  9.472115154896E-17  6.179789922044E-17  4.012348483982E-17  2.592367503158E-17
  1.666640652573E-17  1.066127218456E-17  6.785339970464E-18  4.296385641440E-18
  2.706307736497E-18  1.695767318909E-18  1.056922238438E-18  6.552087277160E-19
  4.039690639829E-19  0.000000000000E+00  0.000000000000E+00  0.000000000000E+00
  0.000000000000E+00
</data>
</radfunc>
</valence-charge>
<semilocal-potentials set="scalar_relativistic">
<slps n="1" l="s" rc="1.40824178834" eref="-1.87837656100">
<radfunc>
<data npts="256">
 -1.157636072913E+01 -1.157597986683E+01 -1.157484122281E+01 -1.157294119838E+01
 -1.157029873426E+01 -1.156682279238E+01 -1.156239046889E+01 -1.155731193045E+01
 -1.155159764039E+01 -1.154492849312E+01 -1.153740426231E+01 -1.152921755671E+01
 -1.151931177522E+01 -1.150895252905E+01 -1.149671428656E+01 -1.148447271734E+01
 -1.147035243363E+01 -1.145694433538E+01 -1.144184358808E+01 -1.142483739498E+01
 -1.140568645193E+01 -1.138864176900E+01 -1.136989996026E+01 -1.134929313813E+01
 -1.132663704651E+01 -1.130172951875E+01 -1.127434880297E+01 -1.125204482407E+01
 -1.122810227323E+01 -1.120240215383E+01 -1.117481705478E+01 -1.114521059442E+01
 -1.111343683477E+01 -1.107933966585E+01 -1.104275216047E+01 -1.100349590012E+01
 -1.096138027321E+01 -1.091620174776E+01 -1.088427444581E+01 -1.085082172921E+01
 -1.081577275427E+01 -1.077905361933E+01 -1.074058726114E+01 -1.070029335149E+01
 -1.065808819496E+01 -1.061388462856E+01 -1.056759192414E+01 -1.051911569478E+01
 -1.046835780641E+01 -1.041521629622E+01 -1.035958529954E+01 -1.030135498731E+01
 -1.024041151640E+01 -1.017663699552E+01 -1.010990946984E+01 -1.004010292787E+01
 -9.967087334697E+00 -9.890728696324E+00 -9.810889160402E+00 -9.727427159595E+00
 -9.640197604533E+00 -9.549052134385E+00 -9.453839434121E+00 -9.354405628826E+00
 -9.250594766794E+00 -9.142249404662E+00 -9.029211309615E+00 -8.970883026361E+00
 -8.911322295574E+00 -8.850509513524E+00 -8.788425212407E+00 -8.725050101156E+00
 -8.660365109540E+00 -8.594351435776E+00 -8.526990597865E+00 -8.458264488908E+00
 -8.388155436625E+00 -8.316646267373E+00 -8.243720374907E+00 -8.169361794190E+00
 -8.093555280557E+00 -8.016286394533E+00 -7.937541592651E+00 -7.857308324607E+00
 -7.775575137103E+00 -7.692331784765E+00 -7.607569348497E+00 -7.521280361682E+00
 -7.433458944637E+00 -7.344100947717E+00 -7.253204103526E+00 -7.160768188629E+00
 -7.066795195228E+00 -6.971289513218E+00 -6.874258123068E+00 -6.775710799937E+00
 -6.675660329448E+00 -6.574122735510E+00 -6.471117520549E+00 -6.366667918476E+00
 -6.260801160680E+00 -6.153548755264E+00 -6.044946779676E+00 -5.935036186785E+00
 -5.823863124350E+00 -5.711479267690E+00 -5.597942165200E+00 -5.483315596150E+00
 -5.367669940004E+00 -5.251082556173E+00 -5.133638172837E+00 -5.015429283062E+00
 -4.896556546010E+00 -4.777129190518E+00 -4.657265417739E+00 -4.537092798840E+00
 -4.416748662993E+00 -4.296380469993E+00 -4.176146160837E+00 -4.056214478488E+00
 -3.936765249763E+00 -3.817989617942E+00 -3.700090214122E+00 -3.583281253738E+00
 -3.467788542875E+00 -3.353849377139E+00 -3.241712313914E+00 -3.131636796851E+00
 -3.023892609483E+00 -2.918759132983E+00 -2.816524381391E+00 -2.717483786188E+00
 -2.621938701105E+00 -2.530194597519E+00 -2.442558921070E+00 -2.359338581177E+00
 -2.280837047368E+00 -2.207351029762E+00 -2.139166725979E+00 -2.076555623315E+00
 -2.019769853389E+00 -1.969037106737E+00 -1.924555127007E+00 -1.886485818544E+00
 -1.854949017022E+00 -1.830015990213E+00 -1.811702754559E+00 -1.799963312590E+00
 -1.794682935695E+00 -1.795671635815E+00 -1.802657987533E+00 -1.815283478206E+00
 -1.833097577587E+00 -1.855553729520E+00 -1.882006476537E+00 -1.911709933689E+00
 -1.943817831348E+00 -1.977385348857E+00 -2.011372963290E+00 -2.044652542044E+00
 -2.076015916592E+00 -2.104186189991E+00 -2.127832054922E+00 -2.145585434229E+00
 -2.156062803467E+00 -2.157890614916E+00 -2.149735312906E+00 -2.130338506425E+00
 -2.105064102776E+00 -2.080102643333E+00 -2.055437170626E+00 -2.031064174759E+00
 -2.006980187695E+00 -1.983181782564E+00 -1.959665573190E+00 -1.936428213603E+00
 -1.913466397559E+00 -1.890776858064E+00 -1.868356366904E+00 -1.846201734170E+00
 -1.824309807805E+00 -1.802677473136E+00 -1.781301652430E+00 -1.760179304437E+00
 -1.739307423954E+00 -1.718683041386E+00 -1.698303222319E+00 -1.678165067093E+00
 -1.658265710385E+00 -1.638602320801E+00 -1.619172100468E+00 -1.599972284641E+00
 -1.581000141304E+00 -1.562252970792E+00 -1.543728105402E+00 -1.525422909025E+00
 -1.507334776771E+00 -1.489461134604E+00 -1.471799438985E+00 -1.454347176510E+00
 -1.437101863558E+00 -1.420061045947E+00 -1.403222298583E+00 -1.386583225125E+00
 -1.370141457639E+00 -1.353894656273E+00 -1.337840508923E+00 -1.321976730902E+00
 -1.306301064624E+00 -1.290811279279E+00 -1.275505170519E+00 -1.260380560141E+00
 -1.245435295785E+00 -1.230667250620E+00 -1.216074323047E+00 -1.201654436398E+00
 -1.187405538637E+00 -1.173325602076E+00 -1.159412623076E+00 -1.145664621770E+00
 -1.132079641773E+00 -1.118655749913E+00 -1.105391035943E+00 -1.092283612280E+00
 -1.079331613730E+00 -1.066533197221E+00 -1.053886541545E+00 -1.041389847094E+00
 -1.029041335605E+00 -1.016839249908E+00 -1.004781853672E+00 -9.928674311620E-01
 -9.810942869897E-01 -9.694607458754E-01 -9.579651524078E-01 -9.466058708082E-01
 -9.353812846978E-01 -9.242897968671E-01 -9.133298290482E-01 -9.024998216904E-01
 -8.917982337380E-01 -8.812235424104E-01 -8.707742429855E-01 -8.604488485855E-01
 -8.502458899650E-01 -8.401639153018E-01 -8.302014899904E-01 -8.203571964371E-01
 -8.106296338592E-01 -8.010174180845E-01 -7.915191813550E-01 -7.821335721319E-01
 -7.728592549032E-01 -7.636949099936E-01 -7.546392333769E-01 -7.456909364900E-01
</data>
</radfunc>
</slps>
<slps n="2" l="p" rc="1.10934588670" eref="-0.838621508820E-08">
<radfunc>
<data npts="256">
 -8.370702590042E+00 -8.370822576594E+00 -8.371179824362E+00 -8.371771082245E+00
 -8.372583268982E+00 -8.373633775735E+00 -8.374943996823E+00 -8.376405012950E+00
 -8.377997826101E+00 -8.379788782565E+00 -8.381722017281E+00 -8.383721075285E+00
 -8.385995733869E+00 -8.388207310478E+00 -8.390602236543E+00 -8.392764672121E+00
 -8.394973276908E+00 -8.396791132687E+00 -8.398517526546E+00 -8.400061221227E+00
 -8.401300852344E+00 -8.401968179556E+00 -8.402237294614E+00 -8.401982812499E+00
 -8.401052603721E+00 -8.399263267354E+00 -8.396395085216E+00 -8.393380339306E+00
 -8.389484854015E+00 -8.384564268710E+00 -8.378456053324E+00 -8.370977957828E+00
 -8.361926488339E+00 -8.351075459700E+00 -8.338174687504E+00 -8.322948897550E+00
 -8.305096947505E+00 -8.284291473930E+00 -8.268606851891E+00 -8.251342048529E+00
 -8.232381337111E+00 -8.211604530250E+00 -8.188887380229E+00 -8.164102090626E+00
 -8.137117951198E+00 -8.107802107915E+00 -8.076020479500E+00 -8.041638830968E+00
 -8.004524013120E+00 -7.964545374842E+00 -7.921576352108E+00 -7.875496233746E+00
 -7.826192099152E+00 -7.773560917068E+00 -7.717511787233E+00 -7.657968298031E+00
 -7.594870963155E+00 -7.528179688853E+00 -7.457876210541E+00 -7.383966423729E+00
 -7.306482519652E+00 -7.225484821221E+00 -7.141063200765E+00 -7.053337948364E+00
 -6.962459949856E+00 -6.868610028285E+00 -6.771997303611E+00 -6.722727323772E+00
 -6.672856435148E+00 -6.622417306297E+00 -6.571443631779E+00 -6.519969934854E+00
 -6.468031349096E+00 -6.415663379340E+00 -6.362901642713E+00 -6.309781590892E+00
 -6.256338215147E+00 -6.202605736200E+00 -6.148617281400E+00 -6.094404552278E+00
 -6.039997486081E+00 -5.985423915476E+00 -5.930709231205E+00 -5.875876053092E+00
 -5.820943915364E+00 -5.765928972878E+00 -5.710843735338E+00 -5.655696837121E+00
 -5.600492850715E+00 -5.545232152144E+00 -5.489910846919E+00 -5.434520765161E+00
 -5.379049534417E+00 -5.323480738417E+00 -5.267794169475E+00 -5.211966181468E+00
 -5.155970149288E+00 -5.099777039264E+00 -5.043356093396E+00 -4.986675628169E+00
 -4.929703946347E+00 -4.872410357347E+00 -4.814766298721E+00 -4.756746547750E+00
 -4.698330508415E+00 -4.639503554955E+00 -4.580258408958E+00 -4.520596522558E+00
 -4.460529435955E+00 -4.400080073156E+00 -4.339283935891E+00 -4.278190152064E+00
 -4.216862332254E+00 -4.155379185754E+00 -4.093834846772E+00 -4.032338861958E+00
 -3.971015792565E+00 -3.910004388665E+00 -3.849456299071E+00 -3.789534289172E+00
 -3.730409949990E+00 -3.672260895388E+00 -3.615267460515E+00 -3.559608933135E+00
 -3.505459370119E+00 -3.452983073666E+00 -3.402329825128E+00 -3.353629997809E+00
 -3.306989692920E+00 -3.262486063716E+00 -3.220163010557E+00 -3.180027442856E+00
 -3.142046311123E+00 -3.106144612312E+00 -3.072204563092E+00 -3.040066117456E+00
 -3.009528976426E+00 -2.980356198101E+00 -2.952279465942E+00 -2.925006012499E+00
 -2.898227125960E+00 -2.871628089608E+00 -2.844899322020E+00 -2.817748401663E+00
 -2.789912577202E+00 -2.761171288709E+00 -2.731358159923E+00 -2.700371873128E+00
 -2.668912298801E+00 -2.637792327218E+00 -2.606981503346E+00 -2.576478433507E+00
 -2.546282179234E+00 -2.516392229456E+00 -2.486808463237E+00 -2.457531102574E+00
 -2.428560654916E+00 -2.399897845319E+00 -2.371543538456E+00 -2.343498651041E+00
 -2.315764055685E+00 -2.288340477680E+00 -2.261228386767E+00 -2.234427886593E+00
 -2.207938605158E+00 -2.181759590303E+00 -2.155889214849E+00 -2.130325096635E+00
 -2.105064102776E+00 -2.080102643333E+00 -2.055437170626E+00 -2.031064174759E+00
 -2.006980187695E+00 -1.983181782564E+00 -1.959665573190E+00 -1.936428213603E+00
 -1.913466397559E+00 -1.890776858064E+00 -1.868356366904E+00 -1.846201734170E+00
 -1.824309807805E+00 -1.802677473136E+00 -1.781301652430E+00 -1.760179304437E+00
 -1.739307423954E+00 -1.718683041386E+00 -1.698303222319E+00 -1.678165067093E+00
 -1.658265710385E+00 -1.638602320801E+00 -1.619172100468E+00 -1.599972284641E+00
 -1.581000141304E+00 -1.562252970792E+00 -1.543728105402E+00 -1.525422909025E+00
 -1.507334776771E+00 -1.489461134604E+00 -1.471799438985E+00 -1.454347176510E+00
 -1.437101863558E+00 -1.420061045947E+00 -1.403222298583E+00 -1.386583225125E+00