<?xml version="1.0" encoding="UTF-8" ?>
<psml version="1.1" energy_unit="hartree" length_unit="bohr"
 uuid="171ea9f0-23d2-11e8-563f-05b09ffc7dab"
 xmlns="http://esl.cecam.org/PSML/ns/1.1">
<provenance creator="ONCVPSP-3.3.0+psml-3.3.0-73 (scalar-relativistic)"
 date="2018-03-09">
<annotation action="semilocal-pseudopotential-generation"
 action-cont="projectors-generation" />
<input-file name="oncvpsp-input">
<![CDATA[# atsym z nc nv iexc psfile
Mg 12 1 3 -001012 upf
# n l f
1 0 2.0
2 0 2.0
2 1 6.0
3 0 2.0
# lmax
1
# l rc ep ncon nbas qcut
0 1.15 0.0 4 8 9.1
1 1.55 0.0 4 8 9.0
# lloc lpopt rc5 dvloc0
4 5 1.1 0.0
# l nproj debl
0 2 1.0
1 2 3.0
# icmod fcfact rcfact
0 4.0 1.5
# epsh1 epsh2 depsh
-12.0 12.0 0.02
# rlmax drl
4.0 0.01
 0
]]>
</input-file>
</provenance>
<pseudo-atom-spec atomic-label="Mg" atomic-number="12" z-pseudo="10"
 flavor="Hamann&apos;s oncvpsp" relativity="scalar" spin-dft="no"
 core-corrections="no">
<annotation pseudo-energy="-59.2150865517" />
<exchange-correlation>
<annotation oncvpsp-xc-code="-1012" oncvpsp-xc-type="libxc-interface" />
<libxc-info number-of-functionals="2">
<functional name="Slater exchange (LDA)" type="exchange" id="1" />
<functional name="Perdew &amp; Wang (LDA)" type="correlation" id="12" />
</libxc-info>
</exchange-correlation>
<valence-configuration total-valence-charge="10">
<shell n="2" l="s" occupation="2" />
<shell n="2" l="p" occupation="6" />
<shell n="3" l="s" occupation="2" />
</valence-configuration>
</pseudo-atom-spec>
<grid npts="457">
<annotation type="sampled from oncvpsp log grid"
 recipe="r(i:1..N) = r1*exp(a*(i-1)) + r=0; resampled"
 recipe-cont="r1: scale; a: step" scale="0.416666666667E-04"
 step="0.119285708653E-01" delta="0.500000000000E-02" rmax="44.1290725605" />
<grid-data>
  0.000000000000E+00  5.039120976724E-03  1.006524869499E-02  1.509947805150E-02
  2.010454437589E-02  2.521877418060E-02  3.052194271270E-02  3.564173488318E-02
  4.112680627824E-02  4.633723448486E-02  5.158871650650E-02  5.675430673824E-02
  6.243712872626E-02  6.787447925602E-02  7.291041759287E-02  7.831999673271E-02
  8.413093890731E-02  8.930140632003E-02  9.478963713363E-02  1.006151602554E-01
  1.067987047883E-01  1.120180571063E-01  1.174924840404E-01  1.232344513249E-01
  1.292570339063E-01  1.355739457160E-01  1.421995708979E-01  1.473804313857E-01
  1.527500499353E-01  1.583153037066E-01  1.640833204201E-01  1.700614874857E-01
  1.762574614640E-01  1.826791778729E-01  1.893348613508E-01  1.962330361902E-01
  2.033825372554E-01  2.107925212977E-01  2.158818959319E-01  2.210941484273E-01
  2.264322455469E-01  2.318992256834E-01  2.374982005883E-01  2.432323571433E-01
  2.491049591741E-01  2.551193493084E-01  2.612789508781E-01  2.675872698681E-01
  2.740478969118E-01  2.806645093349E-01  2.874408732483E-01  2.943808456920E-01
  3.014883768304E-01  3.087675122006E-01  3.162223950151E-01  3.238572685204E-01
  3.316764784115E-01  3.396844753063E-01  3.478858172781E-01  3.562851724504E-01
  3.648873216541E-01  3.736971611481E-01  3.827197054069E-01  3.919600899742E-01
  4.014235743866E-01  4.111155451665E-01  4.210415188890E-01  4.260940171157E-01
  4.312071453211E-01  4.363816310649E-01  4.416182106377E-01  4.469176291654E-01
  4.522806407154E-01  4.577080084040E-01  4.632005045048E-01  4.687589105589E-01
  4.743840174856E-01  4.800766256954E-01  4.858375452037E-01  4.916675957462E-01
  4.975676068951E-01  5.035384181779E-01  5.095808791960E-01  5.156958497464E-01
  5.218841999433E-01  5.281468103426E-01  5.344845720667E-01  5.408983869316E-01
  5.473891675747E-01  5.539578375856E-01  5.606053316367E-01  5.673325956163E-01
  5.741405867637E-01  5.810302738049E-01  5.880026370905E-01  5.950586687356E-01
  6.021993727604E-01  6.094257652335E-01  6.167388744164E-01  6.241397409093E-01
  6.316294178003E-01  6.392089708139E-01  6.468794784636E-01  6.546420322052E-01
  6.624977365917E-01  6.704477094308E-01  6.784930819439E-01  6.866349989273E-01
  6.948746189144E-01  7.032131143414E-01  7.116516717134E-01  7.201914917740E-01
  7.288337896753E-01  7.375797951514E-01  7.464307526932E-01  7.553879217255E-01
  7.644525767862E-01  7.736260077077E-01  7.829095198002E-01  7.923044340378E-01
  8.018120872462E-01  8.114338322932E-01  8.211710382807E-01  8.310250907401E-01
  8.409973918289E-01  8.510893605309E-01  8.613024328573E-01  8.716380620516E-01
  8.820977187962E-01  8.926828914217E-01  9.033950861188E-01  9.142358271522E-01
  9.252066570780E-01  9.363091369630E-01  9.475448466065E-01  9.589153847658E-01
  9.704223693830E-01  9.820674378156E-01  9.938522470694E-01  1.005778474034E+00
  1.017847815723E+00  1.030061989511E+00  1.042422733385E+00  1.054931806186E+00
  1.067590987860E+00  1.080402079715E+00  1.093366904671E+00  1.106487307527E+00
  1.119765155218E+00  1.133202337080E+00  1.146800765125E+00  1.160562374307E+00
  1.174489122798E+00  1.188582992272E+00  1.202845988179E+00  1.217280140037E+00
  1.231887501718E+00  1.246670151738E+00  1.261630193559E+00  1.276769755882E+00
  1.292090992953E+00  1.307596084868E+00  1.323287237886E+00  1.339166684741E+00
  1.355236684958E+00  1.371499525177E+00  1.387957519480E+00  1.404613009713E+00
  1.421468365830E+00  1.438525986220E+00  1.455788298054E+00  1.473257757631E+00
  1.490936850723E+00  1.508828092931E+00  1.526934030047E+00  1.545257238407E+00
  1.563800325268E+00  1.582565929171E+00  1.601556720321E+00  1.620775400965E+00
  1.640224705777E+00  1.659907402246E+00  1.679826291073E+00  1.699984206566E+00
  1.720384017045E+00  1.741028625249E+00  1.761920968752E+00  1.783064020377E+00
  1.804460788622E+00  1.826114318085E+00  1.848027689902E+00  1.870204022181E+00
  1.892646470447E+00  1.915358228093E+00  1.938342526830E+00  1.961602637152E+00
  1.985141868797E+00  2.008963571223E+00  2.033071134078E+00  2.057467987687E+00
  2.082157603539E+00  2.107143494781E+00  2.132429216719E+00  2.158018367319E+00
  2.183914587727E+00  2.210121562780E+00  2.236643021533E+00  2.263482737792E+00
  2.290644530645E+00  2.318132265013E+00  2.345949852193E+00  2.374101250419E+00
  2.402590465424E+00  2.431421551009E+00  2.460598609622E+00  2.490125792937E+00
  2.520007302452E+00  2.550247390082E+00  2.580850358763E+00  2.611820563068E+00
  2.643162409825E+00  2.674880358743E+00  2.706978923047E+00  2.739462670124E+00
  2.772336222165E+00  2.805604256831E+00  2.839271507913E+00  2.873342766008E+00
  2.907822879201E+00  2.942716753751E+00  2.978029354796E+00  3.013765707053E+00
  3.049930895538E+00  3.086530066285E+00  3.123568427080E+00  3.161051248205E+00
  3.198983863183E+00  3.237371669542E+00  3.276220129576E+00  3.315534771131E+00
  3.355321188385E+00  3.395585042645E+00  3.436332063157E+00  3.477568047915E+00
  3.519298864490E+00  3.561530450864E+00  3.604268816274E+00  3.647520042069E+00
  3.691290282574E+00  3.735585765965E+00  3.780412795157E+00  3.825777748699E+00
  3.871687081683E+00  3.918147326663E+00  3.965165094583E+00  4.012747075718E+00
  4.060900040627E+00  4.109630841114E+00  4.158946411208E+00  4.208853768142E+00
  4.259360013360E+00  4.310472333520E+00  4.362198001522E+00  4.414544377541E+00
  4.467518910071E+00  4.521129136992E+00  4.575382686636E+00  4.630287278875E+00
  4.685850726222E+00  4.742080934937E+00  4.798985906156E+00  4.856573737030E+00
  4.914852621874E+00  4.973830853337E+00  5.033516823577E+00  5.093919025460E+00
  5.155046053765E+00  5.216906606410E+00  5.279509485687E+00  5.342863599515E+00
  5.406977962710E+00  5.471861698262E+00  5.537524038641E+00  5.603974327105E+00
  5.671222019030E+00  5.739276683259E+00  5.808148003458E+00  5.877845779499E+00
  5.948379928853E+00  6.019760487999E+00  6.091997613855E+00  6.165101585222E+00
  6.239082804244E+00  6.313951797895E+00  6.389719219470E+00  6.466395850104E+00
  6.543992600305E+00  6.622520511509E+00  6.701990757647E+00  6.782414646738E+00
  6.863803622499E+00  6.946169265969E+00  7.029523297161E+00  7.113877576727E+00
  7.199244107648E+00  7.285635036939E+00  7.373062657383E+00  7.461539409271E+00
  7.551077882182E+00  7.641690816769E+00  7.733391106570E+00  7.826191799849E+00
  7.920106101447E+00  8.015147374664E+00  8.111329143160E+00  8.208665092878E+00
  8.307169073993E+00  8.406855102881E+00  8.507737364115E+00  8.609830212485E+00
  8.713148175034E+00  8.817705953135E+00  8.923518424572E+00  9.030600645667E+00
  9.138967853415E+00  9.248635467656E+00  9.359619093268E+00  9.471934522387E+00
  9.585597736656E+00  9.700624909496E+00  9.817032408410E+00  9.934836797311E+00
  1.005405483888E+01  1.017470349694E+01  1.029679993891E+01  1.042036153818E+01
  1.054540587663E+01  1.067195074715E+01  1.080001415612E+01  1.092961432599E+01
  1.106076969790E+01  1.119349893428E+01  1.132782092149E+01  1.146375477255E+01
  1.160131982982E+01  1.174053566778E+01  1.188142209579E+01  1.202399916094E+01
  1.216828715087E+01  1.231430659668E+01  1.246207827584E+01  1.261162321515E+01
  1.276296269373E+01  1.291611824606E+01  1.307111166501E+01  1.322796500499E+01
  1.338670058505E+01  1.354734099207E+01  1.370990908398E+01  1.387442799298E+01
  1.404092112890E+01  1.420941218245E+01  1.437992512864E+01  1.455248423018E+01
  1.472711404094E+01  1.490383940943E+01  1.508268548235E+01  1.526367770813E+01
  1.544684184063E+01  1.563220394272E+01  1.581979039003E+01  1.600962787471E+01
  1.620174340921E+01  1.639616433012E+01  1.659291830208E+01  1.679203332171E+01
  1.699353772157E+01  1.719746017423E+01  1.740382969632E+01  1.761267565267E+01
  1.782402776050E+01  1.803791609363E+01  1.825437108675E+01  1.847342353979E+01
  1.869510462227E+01  1.891944587774E+01  1.914647922827E+01  1.937623697901E+01
  1.960875182276E+01  1.984405684463E+01  2.008218552677E+01  2.032317175309E+01
  2.056704981413E+01  2.081385441190E+01  2.106362066484E+01  2.131638411282E+01
  2.157218072217E+01  2.183104689084E+01  2.209301945353E+01  2.235813568697E+01
  2.262643331521E+01  2.289795051500E+01  2.317272592118E+01  2.345079863223E+01
  2.373220821582E+01  2.401699471441E+01  2.430519865098E+01  2.459686103479E+01
  2.489202336721E+01  2.519072764761E+01  2.549301637939E+01  2.579893257594E+01
  2.610851976685E+01  2.642182200405E+01  2.673888386810E+01  2.705975047452E+01
  2.738446748021E+01  2.771308108997E+01  2.804563806305E+01  2.838218571981E+01
  2.872277194845E+01  2.906744521183E+01  2.941625455437E+01  2.976924960902E+01
  3.012648060433E+01  3.048799837158E+01  3.085385435204E+01  3.122410060427E+01
  3.159878981152E+01  3.197797528926E+01  3.236171099273E+01  3.275005152464E+01
  3.314305214294E+01  3.354076876865E+01  3.394325799388E+01  3.435057708980E+01
  3.476278401488E+01  3.517993742306E+01  3.560209667214E+01  3.602932183220E+01
  3.646167369419E+01  3.689921377852E+01  3.734200434386E+01  3.779010839599E+01
  3.824358969674E+01  3.870251277310E+01  3.916694292638E+01  3.963694624149E+01
  4.011258959639E+01  4.059394067155E+01  4.108106795961E+01  4.157404077512E+01
  4.207292926442E+01  4.257780441560E+01  4.308873806858E+01  4.360580292541E+01
  4.412907256051E+01
</grid-data>
</grid>
<valence-charge total-charge="10" is-unscreening-charge="yes"
 rescaled-to-z-pseudo="no">
<radfunc>
<data npts="457">
  2.546247735904E+01  2.546950506058E+01  2.549050374218E+01  2.552550548280E+01
  2.557410497965E+01  2.563789330530E+01  2.571900171171E+01  2.581161789428E+01
  2.592625621326E+01  2.604971673221E+01  2.618827554087E+01  2.633815610753E+01
  2.651829075064E+01  2.670525032089E+01  2.689082343602E+01  2.710309955634E+01
  2.734558789566E+01  2.757351332498E+01  2.782750835883E+01  2.811014609598E+01
  2.842414017095E+01  2.869980867995E+01  2.899883567200E+01  2.932271519419E+01
  2.967292851555E+01  3.005091353171E+01  3.045802643634E+01  3.078322089826E+01
  3.112594562613E+01  3.148657736813E+01  3.186539935566E+01  3.226258025693E+01
  3.267815037786E+01  3.311197492080E+01  3.356372413629E+01  3.403284024078E+01
  3.451850102744E+01  3.501958017166E+01  3.536148675867E+01  3.570906761917E+01
  3.606170726350E+01  3.641869976337E+01  3.677924205581E+01  3.714242713938E+01
  3.750723722360E+01  3.787253690565E+01  3.823706646144E+01  3.859943535360E+01
  3.895811607471E+01  3.931143846203E+01  3.965758463813E+01  3.999458475148E+01
  4.032031371111E+01  4.063248912982E+01  4.092867071074E+01  4.120626133169E+01
  4.146251009989E+01  4.169451766569E+01  4.189924409677E+01  4.207351962292E+01
  4.221405856418E+01  4.231747675118E+01  4.238031273345E+01  4.239905304817E+01
  4.237016178633E+01  4.229011464299E+01  4.215543757309E+01  4.206655148049E+01
  4.196275008987E+01  4.184363331416E+01  4.170881314053E+01  4.155791536208E+01
  4.139058136990E+01  4.120647000123E+01  4.100525943868E+01  4.078664915506E+01
  4.055036189706E+01  4.029614570061E+01  4.002377592969E+01  3.973305732958E+01
  3.942382608461E+01  3.909595186947E+01  3.874933988258E+01  3.838393284869E+01
  3.799971297739E+01  3.759670386306E+01  3.717497231139E+01  3.673463007633E+01
  3.627583549119E+01  3.579879497669E+01  3.530376440830E+01  3.479105032505E+01
  3.426101096145E+01  3.371405708431E+01  3.315065261614E+01  3.257131502725E+01
  3.197661547895E+01  3.136717870094E+01  3.074368258711E+01  3.010685749466E+01
  2.945748523336E+01  2.879639773299E+01  2.812447537921E+01  2.744264501015E+01
  2.675187756855E+01  2.605318540696E+01  2.534761924659E+01  2.463626479349E+01
  2.392023901924E+01  2.320068611717E+01  2.247877314850E+01  2.175568539719E+01
  2.103262145597E+01  2.031078807028E+01  1.959139477063E+01  1.887564832807E+01
  1.816474707106E+01  1.745987510562E+01  1.676219648396E+01  1.607284936953E+01
  1.539294024899E+01  1.472353824349E+01  1.406566957286E+01  1.342031222719E+01
  1.278839089990E+01  1.217077223598E+01  1.156826044697E+01  1.098159334236E+01
  1.041143882310E+01  9.858391879496E+00  9.322972130107E+00  8.805621933072E+00
  8.306705094533E+00  7.826506191889E+00  7.365230521973E+00  6.923004676317E+00
  6.499877737362E+00  6.095823081181E+00  5.710740763936E+00  5.344460461290E+00
  4.996744922298E+00  4.667293892251E+00  4.355748452645E+00  4.061695721007E+00
  3.784673848964E+00  3.524177253729E+00  3.279662016217E+00  3.050551378347E+00
  2.836241272752E+00  2.636105820084E+00  2.449502732338E+00  2.275778564942E+00
  2.114273914422E+00  1.964328941828E+00  1.825288894693E+00  1.696507989640E+00
  1.577352959372E+00  1.467206199072E+00  1.365468534155E+00  1.271561600351E+00
  1.184929844675E+00  1.105042159493E+00  1.031393166745E+00  9.635041728815E-01
  9.009238173945E-01  8.432284389253E-01  7.900221829497E-01  7.409368740489E-01
  6.956316739855E-01  6.537925444559E-01  6.151315307637E-01  5.793858800572E-01
  5.463170055292E-01  5.157093063789E-01  4.873688526721E-01  4.611219447070E-01
  4.368135582272E-01  4.143051095690E-01  3.934699830549E-01  3.741882177650E-01
  3.563463479970E-01  3.398371681681E-01  3.245595368691E-01  3.104181769950E-01
  2.973234728709E-01  2.851912652578E-01  2.739426450755E-01  2.635037466333E-01
  2.538055411150E-01  2.447836310103E-01  2.363780461388E-01  2.285330418580E-01
  2.211968999987E-01  2.143217330172E-01  2.078632918056E-01  2.017807775499E-01
  1.960366579804E-01  1.905964883107E-01  1.854287371177E-01  1.805046173741E-01
  1.757979228054E-01  1.712848697049E-01  1.669439443085E-01  1.627557557977E-01
  1.587028949711E-01  1.547697985971E-01  1.509426194399E-01  1.472091019248E-01
  1.435584633941E-01  1.399812808854E-01  1.364693833498E-01  1.330157492153E-01
  1.296144091879E-01  1.262603541754E-01  1.229494482090E-01  1.196783462306E-01
  1.164444166119E-01  1.132456682603E-01  1.100806821710E-01  1.069485472747E-01
  1.038488004338E-01  1.007813704364E-01  9.774652583781E-02  9.474482649854E-02
  9.177707866944E-02  8.884429347517E-02  8.594764864842E-02  8.308845336948E-02
  8.026811606761E-02  7.748811504310E-02  7.474997177134E-02  7.205522675324E-02
  6.940541777896E-02  6.680206047516E-02  6.424663100927E-02  6.174055082732E-02
  5.928517330543E-02  5.688177219858E-02  5.453153177351E-02  5.223553851651E-02
  4.999477431009E-02  4.781011097638E-02  4.568230608849E-02  4.361199995493E-02
  4.159971368539E-02  3.964584825020E-02  3.775068444893E-02  3.591438370747E-02
  3.413698962598E-02  3.241843020406E-02  3.075852067242E-02  2.915696686392E-02
  2.761336906014E-02  2.612722625268E-02  2.469794076191E-02  2.332482315851E-02
  2.200709743624E-02  2.074390639023E-02  1.953431714937E-02  1.837732682662E-02
  1.727186824406E-02  1.621681569634E-02  1.521099071785E-02  1.425316782202E-02
  1.334208018312E-02  1.247642523356E-02  1.165487015230E-02  1.087605722168E-02
  1.013860903279E-02  9.441133521253E-03  8.782228817453E-03  8.160487897343E-03
  7.574503021724E-03  7.022869953852E-03  6.504191946950E-03  6.017083494926E-03
  5.560173841226E-03  5.132110242290E-03  4.731560983584E-03  4.357218147553E-03
  4.007800134201E-03  3.682053936222E-03  3.378757171788E-03  3.096719879199E-03
  2.834786078592E-03  2.591835106851E-03  2.366782732694E-03  2.158582059681E-03
  1.966224225593E-03  1.788738907185E-03  1.625194639887E-03  1.474698962438E-03
  1.336398396801E-03  1.209478273984E-03  1.093162416620E-03  9.867126892458E-04
  8.894284273226E-04  8.006457559878E-04  7.197368094816E-04  6.461088620269E-04
  5.792033807537E-04  5.184950109979E-04  4.634905040009E-04  4.137275966829E-04
  3.687738527716E-04  3.282254741385E-04  2.917060907336E-04  2.588655370256E-04
  2.293786223456E-04  2.029439020106E-04  1.792824555685E-04  1.581366779653E-04
  1.392690888967E-04  1.224611650617E-04  1.075121995093E-04  9.423819174440E-05
  8.247077175259E-05  7.205616061423E-05  6.285416990769E-05  5.473724165503E-05
  4.758953014053E-05  4.130602653654E-05  3.579172690260E-05  3.096084378356E-05
  2.673606132185E-05  2.304783351758E-05  1.983372501775E-05  1.703779359320E-05
  1.461001326664E-05  1.250573688823E-05  1.068519681382E-05  9.113042225674E-06
  7.757911543287E-06  6.592038302160E-06  5.590888829549E-06  4.732830015848E-06
  3.998825467564E-06  3.372158330462E-06  2.838179087980E-06  2.384076668604E-06
  1.998671235065E-06  1.672227076238E-06  1.396284078090E-06  1.163506311527E-06
  9.675463411398E-07  8.029239285314E-07  6.649178758940E-07  5.494698289175E-07
  4.530989319352E-07  3.728263017382E-07  3.061083589890E-07  2.507781270578E-07
  2.049936768996E-07  1.671929628757E-07  1.360543578782E-07  1.104622564974E-07
  8.947717209334E-08  7.230980738760E-08  5.829862851359E-08  4.689051934500E-08
  3.762413638972E-08  3.011562465955E-08  2.404639179680E-08  1.915267147833E-08
  1.521663786327E-08  1.205886075487E-08  9.531916372128E-09  7.514991342064E-09
  5.909337899741E-09  4.634456493592E-09  3.624898207353E-09  2.827593793632E-09
  2.199628828000E-09  1.706395690099E-09  1.320062905374E-09  1.018310975005E-09
  7.832913106294E-10  6.007713939916E-10  4.594349095150E-10  3.503104511352E-10
  2.663065755504E-10  2.018345459460E-10  1.525031586372E-10  1.148726376728E-10
  8.625677975086E-11  6.456438762007E-11  4.817259208833E-11  3.582597277803E-11
  2.655648263847E-11  1.962009306427E-11  1.444683318536E-11  1.060152264894E-11
  7.753012820910E-12  5.650174656008E-12  4.103217782305E-12  2.969207600162E-12
  2.140876408460E-12  1.538010021444E-12  1.100840824893E-12  7.849982631126E-13
  5.576637827151E-13  3.946537939013E-13  2.782149694998E-13  1.953642507204E-13
  1.366437765586E-13  9.519064877359E-14  6.604464957765E-14  4.563508984176E-14
  3.140196503865E-14  2.151740293361E-14  1.468169463359E-14  9.974560181935E-15
  6.747147583901E-15  4.543943558517E-15  3.046554899094E-15  2.033411461925E-15
  1.351008982153E-15  8.934786113333E-16  5.881376656689E-16  3.853171997591E-16
  2.512336047099E-16  1.630166857090E-16  1.052582496556E-16  6.762767177707E-17
  4.323257253424E-17  2.749729040062E-17  1.739940559429E-17  1.095261455184E-17
  6.858244156750E-18  4.271617559641E-18  2.646234161829E-18  1.630393879350E-18
  9.989797503511E-19  6.086840222180E-19  3.687814113333E-19  2.221562462087E-19
  1.330548001115E-19  7.922364887551E-20  4.689222166173E-20  2.758909642145E-20
  1.613368201856E-20  9.376853304648E-21  5.415969799875E-21  3.108553137863E-21
  1.772843290743E-21  1.004567167263E-21  5.655229194178E-22  3.162642618703E-22
  0.000000000000E+00  0.000000000000E+00  0.000000000000E+00  0.000000000000E+00
  0.000000000000E+00  0.000000000000E+00  0.000000000000E+00  0.000000000000E+00
  0.000000000000E+00
</data>
</radfunc>
</valence-charge>
<semilocal-potentials set="scalar_relativistic">
<slps n="2" l="s" rc="1.16056237431" eref="-2.91410945758">
<radfunc>
<data npts="256">
 -2.039871484957E+01 -2.039829693662E+01 -2.039704778853E+01 -2.039496424582E+01
 -2.039206836896E+01 -2.038826228360E+01 -2.038341421684E+01 -2.037786647550E+01
 -2.037098189268E+01 -2.036354522943E+01 -2.035517111214E+01 -2.034607871637E+01
 -2.033510312251E+01 -2.032365503963E+01 -2.031223325471E+01 -2.029909430582E+01
 -2.028398620873E+01 -2.026968583220E+01 -2.025363205766E+01 -2.023561653595E+01
 -2.021540751201E+01 -2.019748881273E+01 -2.017785709472E+01 -2.015635487231E+01
 -2.013281101239E+01 -2.010703960451E+01 -2.007883872128E+01 -2.005596248138E+01
 -2.003149726235E+01 -2.000533726842E+01 -1.997736990055E+01 -1.994747528549E+01
 -1.991552575945E+01 -1.988138530098E+01 -1.984490890665E+01 -1.980594190290E+01
 -1.976431918689E+01 -1.971986438913E+01 -1.968856189455E+01 -1.965585807917E+01
 -1.962169110677E+01 -1.958599623663E+01 -1.954870566098E+01 -1.950974833297E+01
 -1.946904978532E+01 -1.942653193980E+01 -1.938211290779E+01 -1.933570678263E+01
 -1.928722342450E+01 -1.923656823928E+01 -1.918364195292E+01 -1.912834038345E+01
 -1.907055421367E+01 -1.901016876771E+01 -1.894706379595E+01 -1.888111327337E+01
 -1.881218521777E+01 -1.874014153504E+01 -1.866483790056E+01 -1.858612368658E+01
 -1.850384194771E+01 -1.841782947759E+01 -1.832791695218E+01 -1.823392917644E+01
 -1.813568545312E+01 -1.803300009382E+01 -1.792568309407E+01 -1.787022738027E+01
 -1.781354099487E+01 -1.775559939138E+01 -1.769637795386E+01 -1.763585204337E+01
 -1.757399704868E+01 -1.751078844115E+01 -1.744620183401E+01 -1.738021304623E+01
 -1.731279817079E+01 -1.724393364777E+01 -1.717359634196E+01 -1.710176362512E+01
 -1.702841346283E+01 -1.695352450573E+01 -1.687707618507E+01 -1.679904881227E+01
 -1.671942368222E+01 -1.663818317992E+01 -1.655531088997E+01 -1.647079170847E+01
 -1.638461195651E+01 -1.629675949468E+01 -1.620722383759E+01 -1.611599626758E+01
 -1.602306994649E+01 -1.592844002423E+01 -1.583210374311E+01 -1.573406053619E+01
 -1.563431211854E+01 -1.553286256957E+01 -1.542971840494E+01 -1.532488863630E+01
 -1.521838481726E+01 -1.511022107377E+01 -1.500041411746E+01 -1.488898324021E+01
 -1.477595028877E+01 -1.466133961808E+01 -1.454517802258E+01 -1.442749464497E+01
 -1.430832086226E+01 -1.418769014980E+01 -1.406563792431E+01 -1.394220136794E+01
 -1.381741923615E+01 -1.369133165311E+01 -1.356397989981E+01 -1.343540620070E+01
 -1.330565351661E+01 -1.317476535257E+01 -1.304278559103E+01 -1.290975836221E+01
 -1.277572796484E+01 -1.264073885213E+01 -1.250483569890E+01 -1.236806356705E+01
 -1.223046818751E+01 -1.209209637715E+01 -1.195299660938E+01 -1.181321975667E+01
 -1.167282002205E+01 -1.153185607491E+01 -1.139039240357E+01 -1.124850089329E+01
 -1.110626263409E+01 -1.096376995612E+01 -1.082112868425E+01 -1.067846059478E+01
 -1.053590604859E+01 -1.039362676510E+01 -1.025180869121E+01 -1.011066490873E+01
 -9.970438514197E+00 -9.831405395459E+00 -9.693876822798E+00 -9.558201767478E+00
 -9.424768860231E+00 -9.294007906239E+00 -9.166390883413E+00 -9.042432367897E+00
 -8.922689355963E+00 -8.807760485147E+00 -8.698284700157E+00 -8.594939460260E+00
 -8.495464274279E+00 -8.396937085092E+00 -8.299409991146E+00 -8.202871271008E+00
 -8.107310341793E+00 -8.012717826889E+00 -7.919085604627E+00 -7.826406835329E+00
 -7.734675963250E+00 -7.643888690359E+00 -7.554041919301E+00 -7.465133663444E+00
 -7.377162922709E+00 -7.290129524819E+00 -7.204033932756E+00 -7.118877020515E+00
 -7.034659820720E+00 -6.951383249182E+00 -6.869047813115E+00 -6.787653311315E+00
 -6.707198536131E+00 -6.627680988434E+00 -6.549096617895E+00 -6.471439601603E+00
 -6.394702174275E+00 -6.318874680611E+00 -6.243946344712E+00 -6.169906515776E+00
 -6.096744658014E+00 -6.024450360661E+00 -5.953013336475E+00 -5.882423420244E+00
 -5.812670567318E+00 -5.743744852161E+00 -5.675636466906E+00 -5.608335719951E+00
 -5.541833034557E+00 -5.476118947474E+00 -5.411184107586E+00 -5.347019274568E+00
 -5.283615317577E+00 -5.220963213944E+00 -5.159054047902E+00 -5.097879009314E+00
 -5.037429392434E+00 -4.977696594676E+00 -4.918672115397E+00 -4.860347554702E+00
 -4.802714612259E+00 -4.745765086126E+00 -4.689490871599E+00 -4.633883960064E+00
 -4.578936437871E+00 -4.524640485210E+00 -4.470988375012E+00 -4.417972471848E+00
 -4.365585230853E+00 -4.313819196655E+00 -4.262667002315E+00 -4.212121368282E+00
 -4.162175101359E+00 -4.112821093681E+00 -4.064052321701E+00 -4.015861845192E+00
 -3.968242806260E+00 -3.921188428364E+00 -3.874692015354E+00 -3.828746950512E+00
 -3.783346695614E+00 -3.738484789995E+00 -3.694154849628E+00 -3.650350566215E+00
 -3.607065706286E+00 -3.564294110312E+00 -3.522029691826E+00 -3.480266436552E+00
 -3.438998401555E+00 -3.398219714387E+00 -3.357924572252E+00 -3.318107241180E+00
 -3.278762055208E+00 -3.239883415576E+00 -3.201465789924E+00 -3.163503711506E+00
 -3.125991778414E+00 -3.088924652803E+00 -3.052297060135E+00 -3.016103788424E+00
 -2.980339687499E+00 -2.944999668264E+00 -2.910078701977E+00 -2.875571819532E+00
 -2.841474110755E+00 -2.807780723699E+00 -2.774486863958E+00 -2.741587793983E+00
 -2.709078832406E+00 -2.676955353375E+00 -2.645212785894E+00 -2.613846613173E+00
 -2.582852371988E+00 -2.552225652039E+00 -2.521962095328E+00 -2.492057395535E+00
</data>
</radfunc>
</slps>
<slps n="2" l="p" rc="1.56380032527" eref="-1.71714805821">
<radfunc>
<data npts="256">
 -2.580028756217E+01 -2.579979618076E+01 -2.579832728553E+01 -2.579587671187E+01
 -2.579246966925E+01 -2.578798992024E+01 -2.578228075080E+01 -2.577574349520E+01
 -2.576762482116E+01 -2.575884748134E+01 -2.574895422110E+01 -2.573820104770E+01
 -2.572520501232E+01 -2.571163126644E+01 -2.569807018276E+01 -2.568244749389E+01
 -2.566445333470E+01 -2.564739165052E+01 -2.562820389820E+01 -2.560662866152E+01
 -2.558237294269E+01 -2.556081904883E+01 -2.553715406292E+01 -2.551117400313E+01
 -2.548265535509E+01 -2.545135314520E+01 -2.541699879565E+01 -2.538905391225E+01
 -2.535909236344E+01 -2.532696965662E+01 -2.529253076683E+01 -2.525560930158E+01
 -2.521602658884E+01 -2.517359068057E+01 -2.512809526434E+01 -2.507931847503E+01
 -2.502702159845E+01 -2.497094765906E+01 -2.493133085075E+01 -2.488982554521E+01
 -2.484634003701E+01 -2.480077790255E+01 -2.475303774091E+01 -2.470301290206E+01
 -2.465059120244E+01 -2.459565462798E+01 -2.453807902469E+01 -2.447773377747E+01
 -2.441448147741E+01 -2.434817757869E+01 -2.427867004590E+01 -2.420579899325E+01
 -2.412939631714E+01 -2.404928532422E+01 -2.396528035713E+01 -2.387718642068E+01
 -2.378479881160E+01 -2.368790275564E+01 -2.358627305590E+01 -2.347967375729E+01
 -2.336785783228E+01 -2.325056689386E+01 -2.312753094213E+01 -2.299846815196E+01
 -2.286308470948E+01 -2.272107470627E+01 -2.257212010097E+01 -2.249493587497E+01
 -2.241589075886E+01 -2.233494161739E+01 -2.225204458114E+01 -2.216715505640E+01
 -2.208022773701E+01 -2.199121661825E+01 -2.190007501297E+01 -2.180675557009E+01
 -2.171121029564E+01 -2.161339057645E+01 -2.151324720679E+01 -2.141073041804E+01
 -2.130578991171E+01 -2.119837489596E+01 -2.108843412593E+01 -2.097591594819E+01
 -2.086076834953E+01 -2.074293901048E+01 -2.062237536406E+01 -2.049902465991E+01
 -2.037283403454E+01 -2.024375058805E+01 -2.011172146796E+01 -1.997669396074E+01
 -1.983861559185E+01 -1.969743423496E+01 -1.955309823128E+01 -1.940555652000E+01
 -1.925475878096E+01 -1.910065559059E+01 -1.894319859273E+01 -1.878234068559E+01
 -1.861803622662E+01 -1.845024125705E+01 -1.827891374826E+01 -1.810401387193E+01
 -1.792550429669E+01 -1.774335051379E+01 -1.755752119470E+01 -1.736798858388E+01
 -1.717472893015E+01 -1.697772296026E+01 -1.677695639890E+01 -1.657242053914E+01
 -1.636411286802E+01 -1.615203775201E+01 -1.593620718730E+01 -1.571664162009E+01
 -1.549337084217E+01 -1.526643496708E+01 -1.503588549193E+01 -1.480178645000E+01
 -1.456421565855E+01 -1.432326606586E+01 -1.407904720043E+01 -1.383168672420E+01
 -1.358133208994E+01 -1.332815230093E+01 -1.307233976826E+01 -1.281411225806E+01
 -1.255371491664E+01 -1.229142235692E+01 -1.202754078360E+01 -1.176241012777E+01
 -1.149640615376E+01 -1.122994249189E+01 -1.096347254070E+01 -1.069749117066E+01
 -1.043253614922E+01 -1.016918919358E+01 -9.908076543886E+00 -9.649868935914E+00
 -9.395280838710E+00 -9.145068811090E+00 -8.900028821228E+00 -8.660992367755E+00
 -8.428821239972E+00 -8.204400760528E+00 -7.988631368003E+00 -7.782418420784E+00
 -7.586660138984E+00 -7.402233648979E+00 -7.229979156012E+00 -7.070682343889E+00
 -6.925055172447E+00 -6.793715305595E+00 -6.677164554446E+00 -6.575766962392E+00
 -6.489726995037E+00 -6.419068481343E+00 -6.363614997980E+00 -6.322972415560E+00
 -6.296514311913E+00 -6.283370906520E+00 -6.282422080445E+00 -6.292294922406E+00
 -6.311366093093E+00 -6.337769140063E+00 -6.369406742292E+00 -6.403967737229E+00
 -6.438948706225E+00 -6.471679888819E+00 -6.499355283169E+00 -6.519066986675E+00
 -6.527844151000E+00 -6.522697376667E+00 -6.500669954167E+00 -6.458898059958E+00
 -6.394682809753E+00 -6.318874680611E+00 -6.243946344712E+00 -6.169906515776E+00
 -6.096744658014E+00 -6.024450360661E+00 -5.953013336475E+00 -5.882423420244E+00
 -5.812670567318E+00 -5.743744852161E+00 -5.675636466906E+00 -5.608335719951E+00
 -5.541833034557E+00 -5.476118947474E+00 -5.411184107586E+00 -5.347019274568E+00
 -5.283615317577E+00 -5.220963213944E+00 -5.159054047902E+00 -5.097879009314E+00
 -5.037429392434E+00 -4.977696594676E+00 -4.918672115397E+00 -4.860347554702E+00