<?xml version="1.0" encoding="UTF-8" ?>
<psml version="1.1" energy_unit="hartree" length_unit="bohr"
 uuid="012f9f90-23d3-11e8-75ac-19c1dfff8438"
 xmlns="http://esl.cecam.org/PSML/ns/1.1">
<provenance creator="ONCVPSP-3.3.0+psml-3.3.0-73 (scalar-relativistic)"
 date="2018-03-09">
<annotation action="semilocal-pseudopotential-generation"
 action-cont="projectors-generation" />
<input-file name="oncvpsp-input">
<![CDATA[# atsym z nc nv iexc psfile
Mo 42 6 4 -001012 upf
# n l f
1 0 2.0
2 0 2.0
2 1 6.0
3 0 2.0
3 1 6.0
3 2 10.0
4 0 2.0
4 1 6.0
4 2 5.0
5 0 1.0
# lmax
2
# l rc ep ncon nbas qcut
0 1.45 0.0 4 7 8.2
1 1.45 0.0 4 7 8.8
2 1.35 0.0 4 7 8.8
# lloc lpopt rc5 dvloc0
4 5 1.25 0.0
# l nproj debl
0 2 1.0
1 2 2.0
2 2 2.0
# icmod fcfact rcfact
3 3.0 1.3
# epsh1 epsh2 depsh
-12.0 12.0 0.02
# rlmax drl
6.0 0.01
 0
]]>
</input-file>
</provenance>
<pseudo-atom-spec atomic-label="Mo" atomic-number="42" z-pseudo="14"
 flavor="Hamann&apos;s oncvpsp" relativity="scalar" spin-dft="no"
 core-corrections="yes">
<annotation pseudo-energy="-68.1881298890" />
<exchange-correlation>
<annotation oncvpsp-xc-code="-1012" oncvpsp-xc-type="libxc-interface" />
<libxc-info number-of-functionals="2">
<functional name="Slater exchange (LDA)" type="exchange" id="1" />
<functional name="Perdew &amp; Wang (LDA)" type="correlation" id="12" />
</libxc-info>
</exchange-correlation>
<valence-configuration total-valence-charge="14">
<shell n="4" l="s" occupation="2" />
<shell n="4" l="p" occupation="6" />
<shell n="4" l="d" occupation="5" />
<shell n="5" l="s" occupation="1" />
</valence-configuration>
</pseudo-atom-spec>
<grid npts="457">
<annotation type="sampled from oncvpsp log grid"
 recipe="r(i:1..N) = r1*exp(a*(i-1)) + r=0; resampled"
 recipe-cont="r1: scale; a: step" scale="0.119047619048E-04"
 step="0.119285708653E-01" delta="0.500000000000E-02" rmax="44.1174669210" />
<grid-data>
  0.000000000000E+00  5.037795722915E-03  1.006260160451E-02  1.509550699367E-02
  2.009925702039E-02  2.521214181819E-02  3.051391565380E-02  3.563236135451E-02
  4.111599021390E-02  4.632504811410E-02  5.157514903245E-02  5.673938074985E-02
  6.242070819516E-02  6.785662873951E-02  7.289124265956E-02  7.829939911767E-02
  8.410881305485E-02  8.927792067056E-02  9.476470811758E-02  1.005886991673E-01
  1.067706174709E-01  1.119885971355E-01  1.174615843333E-01  1.232020415203E-01
  1.292230402044E-01  1.355382907102E-01  1.421621733986E-01  1.473416713561E-01
  1.527098777334E-01  1.582736678816E-01  1.640401676468E-01  1.700167624959E-01
  1.762111069761E-01  1.826311345182E-01  1.892850675976E-01  1.961814282649E-01
  2.033290490610E-01  2.107370843290E-01  2.158251204930E-01  2.210360022022E-01
  2.263726954394E-01  2.318382377981E-01  2.374357402114E-01  2.431683887231E-01
  2.490394463004E-01  2.550522546919E-01  2.612102363292E-01  2.675168962751E-01
  2.739758242188E-01  2.805906965187E-01  2.873652782955E-01  2.943034255747E-01
  3.014090874817E-01  3.086863084899E-01  3.161392307221E-01  3.237720963086E-01
  3.315892498019E-01  3.395951406491E-01  3.477943257249E-01  3.561914719253E-01
  3.647913588234E-01  3.735988813908E-01  3.826190527831E-01  3.918570071935E-01
  4.013180027752E-01  4.110074246342E-01  4.209307878946E-01  4.259819573493E-01
  4.310937408375E-01  4.362668657276E-01  4.415020681163E-01  4.468000929337E-01
  4.521616940489E-01  4.575876343775E-01  4.630786859900E-01  4.686356302219E-01
  4.742592577846E-01  4.799503688780E-01  4.857097733045E-01  4.915382905842E-01
  4.974367500712E-01  5.034059910720E-01  5.094468629649E-01  5.155602253205E-01
  5.217469480243E-01  5.280079114006E-01  5.343440063374E-01  5.407561344135E-01
  5.472452080264E-01  5.538121505228E-01  5.604578963290E-01  5.671833910850E-01
  5.739895917780E-01  5.808774668793E-01  5.878479964819E-01  5.949021724397E-01
  6.020409985089E-01  6.092654904910E-01  6.165766763769E-01  6.239755964935E-01
  6.314633036514E-01  6.390408632952E-01  6.467093536547E-01  6.544698658986E-01
  6.623235042894E-01  6.702713863409E-01  6.783146429769E-01  6.864544186927E-01
  6.946918717170E-01  7.030281741776E-01  7.114645122677E-01  7.200020864149E-01
  7.286421114519E-01  7.373858167893E-01  7.462344465908E-01  7.551892599499E-01
  7.642515310693E-01  7.734225494421E-01  7.827036200354E-01  7.920960634759E-01
  8.016012162376E-01  8.112204308324E-01  8.209550760024E-01  8.308065369144E-01
  8.407762153574E-01  8.508655299417E-01  8.610759163010E-01  8.714088272966E-01
  8.818657332242E-01  8.924481220229E-01  9.031574994871E-01  9.139953894810E-01
  9.249633341547E-01  9.360628941646E-01  9.472956488946E-01  9.586631966813E-01
  9.701671550415E-01  9.818091609020E-01  9.935908708328E-01  1.005513961283E+00
  1.017580128818E+00  1.029791090364E+00  1.042148583448E+00  1.054654366450E+00
  1.067310218847E+00  1.080117941473E+00  1.093079356771E+00  1.106196309052E+00
  1.119470664761E+00  1.132904312738E+00  1.146499164491E+00  1.160257154465E+00
  1.174180240318E+00  1.188270403202E+00  1.202529648041E+00  1.216960003817E+00
  1.231563523863E+00  1.246342286149E+00  1.261298393583E+00  1.276433974306E+00
  1.291751181998E+00  1.307252196182E+00  1.322939222536E+00  1.338814493206E+00
  1.354880267125E+00  1.371138830330E+00  1.387592496294E+00  1.404243606250E+00
  1.421094529525E+00  1.438147663879E+00  1.455405435846E+00  1.472870301076E+00
  1.490544744689E+00  1.508431281625E+00  1.526532457004E+00  1.544850846488E+00
  1.563389056646E+00  1.582149725326E+00  1.601135522030E+00  1.620349148294E+00
  1.639793338074E+00  1.659470858131E+00  1.679384508428E+00  1.699537122529E+00
  1.719931568000E+00  1.740570746816E+00  1.761457595778E+00  1.782595086927E+00
  1.803986227970E+00  1.825634062706E+00  1.847541671458E+00  1.869712171516E+00
  1.892148717574E+00  1.914854502185E+00  1.937832756211E+00  1.961086749286E+00
  1.984619790277E+00  2.008435227760E+00  2.032536450493E+00  2.056926887899E+00
  2.081610010554E+00  2.106589330681E+00  2.131868402649E+00  2.157450823481E+00
  2.183340233362E+00  2.209540316163E+00  2.236054799957E+00  2.262887457556E+00
  2.290042107047E+00  2.317522612331E+00  2.345332883679E+00  2.373476878284E+00
  2.401958600823E+00  2.430782104033E+00  2.459951489281E+00  2.489470907153E+00
  2.519344558039E+00  2.549576692735E+00  2.580171613048E+00  2.611133672404E+00
  2.642467276473E+00  2.674176883791E+00  2.706267006396E+00  2.738742210473E+00
  2.771607116999E+00  2.804866402403E+00  2.838524799232E+00  2.872587096822E+00
  2.907058141984E+00  2.941942839688E+00  2.977246153764E+00  3.012973107610E+00
  3.049128784901E+00  3.085718330320E+00  3.122746950283E+00  3.160219913687E+00
  3.198142552651E+00  3.236520263283E+00  3.275358506442E+00  3.314662808520E+00
  3.354438762222E+00  3.394692027369E+00  3.435428331697E+00  3.476653471677E+00
  3.518373313337E+00  3.560593793097E+00  3.603320918615E+00  3.646560769638E+00
  3.690319498874E+00  3.734603332860E+00  3.779418572855E+00  3.824771595729E+00
  3.870668854878E+00  3.917116881136E+00  3.964122283710E+00  4.011691751114E+00
  4.059832052128E+00  4.108550036753E+00  4.157852637194E+00  4.207746868840E+00
  4.258239831267E+00  4.309338709242E+00  4.361050773753E+00  4.413383383038E+00
  4.466343983634E+00  4.519940111438E+00  4.574179392775E+00  4.629069545488E+00
  4.684618380034E+00  4.740833800595E+00  4.797723806202E+00  4.855296491876E+00
  4.913560049779E+00  4.972522770376E+00  5.032193043620E+00  5.092579360144E+00
  5.153690312466E+00  5.215534596215E+00  5.278121011370E+00  5.341458463506E+00
  5.405555965068E+00  5.470422636649E+00  5.536067708289E+00  5.602500520788E+00
  5.669730527038E+00  5.737767293362E+00  5.806620500883E+00  5.876299946893E+00
  5.946815546256E+00  6.018177332811E+00  6.090395460805E+00  6.163480206334E+00
  6.237441968810E+00  6.312291272436E+00  6.388038767705E+00  6.464695232918E+00
  6.542271575713E+00  6.620778834621E+00  6.700228180637E+00  6.780630918805E+00
  6.861998489830E+00  6.944342471708E+00  7.027674581369E+00  7.112006676345E+00
  7.197350756461E+00  7.283718965539E+00  7.371123593125E+00  7.459577076243E+00
  7.549092001158E+00  7.639681105172E+00  7.731357278434E+00  7.824133565775E+00
  7.918023168564E+00  8.013039446587E+00  8.109195919946E+00  8.206506270985E+00
  8.304984346237E+00  8.404644158392E+00  8.505499888293E+00  8.607565886952E+00
  8.710856677596E+00  8.815386957727E+00  8.921171601219E+00  9.028225660434E+00
  9.136564368359E+00  9.246203140780E+00  9.357157578469E+00  9.469443469411E+00
  9.583076791044E+00  9.698073712536E+00  9.814450597086E+00  9.932224004252E+00
  1.005141069230E+01  1.017202762061E+01  1.029409195206E+01  1.041762105548E+01
  1.054263250815E+01  1.066914409825E+01  1.079717382742E+01  1.092673991335E+01
  1.105786079231E+01  1.119055512182E+01  1.132484178328E+01  1.146073988468E+01
  1.159826876330E+01  1.173744798846E+01  1.187829736432E+01  1.202083693269E+01
  1.216508697588E+01  1.231106801960E+01  1.245880083583E+01  1.260830644586E+01
  1.275960612321E+01  1.291272139669E+01  1.306767405345E+01  1.322448614209E+01
  1.338317997580E+01  1.354377813551E+01  1.370630347313E+01  1.387077911481E+01
  1.403722846419E+01  1.420567520576E+01  1.437614330823E+01  1.454865702792E+01
  1.472324091226E+01  1.489991980321E+01  1.507871884085E+01  1.525966346694E+01
  1.544277942854E+01  1.562809278168E+01  1.581562989506E+01  1.600541745380E+01
  1.619748246325E+01  1.639185225281E+01  1.658855447984E+01  1.678761713360E+01
  1.698906853920E+01  1.719293736167E+01  1.739925261001E+01  1.760804364133E+01
  1.781934016503E+01  1.803317224701E+01  1.824957031397E+01  1.846856515774E+01
  1.869018793963E+01  1.891447019491E+01  1.914144383725E+01  1.937114116329E+01
  1.960359485725E+01  1.983883799554E+01  2.007690405149E+01  2.031782690011E+01
  2.056164082291E+01  2.080838051278E+01  2.105808107894E+01  2.131077805188E+01
  2.156650738851E+01  2.182530547717E+01  2.208720914289E+01  2.235225565261E+01
  2.262048272044E+01  2.289192851308E+01  2.316663165524E+01  2.344463123510E+01
  2.372596680993E+01  2.401067841164E+01  2.429880655258E+01  2.459039223122E+01
  2.488547693799E+01  2.518410266125E+01  2.548631189318E+01  2.579214763590E+01
  2.610165340753E+01  2.641487324842E+01  2.673185172740E+01  2.705263394813E+01
  2.737726555551E+01  2.770579274217E+01  2.803826225508E+01  2.837472140214E+01
  2.871521805897E+01  2.905980067567E+01  2.940851828378E+01  2.976142050319E+01
  3.011855754923E+01  3.047998023982E+01  3.084574000269E+01  3.121588888273E+01
  3.159047954932E+01  3.196956530391E+01  3.235320008756E+01  3.274143848861E+01
  3.313433575047E+01  3.353194777948E+01  3.393433115283E+01  3.434154312667E+01
  3.475364164419E+01  3.517068534392E+01  3.559273356804E+01  3.601984637086E+01
  3.645208452731E+01  3.688950954164E+01  3.733218365614E+01  3.778016986001E+01
  3.823353189833E+01  3.869233428111E+01  3.915664229248E+01  3.962652199999E+01
  4.010204026399E+01  4.058326474716E+01  4.107026392413E+01  4.156310709122E+01
  4.206186437631E+01  4.256660674883E+01  4.307740602981E+01  4.359433490217E+01
  4.411746692100E+01
</grid-data>
</grid>
<valence-charge total-charge="14" is-unscreening-charge="yes"
 rescaled-to-z-pseudo="no">
<radfunc>
<data npts="457">
  5.825909998043E-02  5.869432561366E-02  5.999615809747E-02  6.217072013974E-02
  6.519963003744E-02  6.919210328936E-02  7.429655586253E-02  8.016374242242E-02
  8.748338149565E-02  9.543800619588E-02  1.044549916251E-01  1.143167904373E-01
  1.263199778767E-01  1.389548335574E-01  1.516773435944E-01  1.664563265347E-01
  1.836397723879E-01  2.000906555744E-01  2.187734180513E-01  2.400085526478E-01
  2.641664550798E-01  2.858830925531E-01  3.099939006878E-01  3.367810965647E-01
  3.665629009616E-01  3.996983957547E-01  4.365930143594E-01  4.670042334721E-01
  5.000011574603E-01  5.358191983670E-01  5.747163238946E-01  6.169751559626E-01
  6.629052136706E-01  7.128452940952E-01  7.671659783456E-01  8.262722425679E-01
  8.906061437799E-01  9.606495381284E-01  1.010774184487E+00  1.063834891579E+00
  1.120007283252E+00  1.179476512408E+00  1.242437526334E+00  1.309095289957E+00
  1.379664956003E+00  1.454371969431E+00  1.533452091716E+00  1.617151328630E+00
  1.705725743060E+00  1.799441132124E+00  1.898572545482E+00  2.003403619146E+00
  2.114225696512E+00  2.231336705590E+00  2.355039758698E+00  2.485641438227E+00
  2.623449729488E+00  2.768771559389E+00  2.921909897664E+00  3.083160375944E+00
  3.252807379172E+00  3.431119563958E+00  3.618344759767E+00  3.814704211459E+00
  4.020386126191E+00  4.235538494174E+00  4.460261161848E+00  4.576227274198E+00
  4.694597147962E+00  4.815365733097E+00  4.938523208364E+00  5.064054647362E+00
  5.191939674427E+00  5.322152111016E+00  5.454659613383E+00  5.589423302439E+00
  5.726397386873E+00  5.865528780753E+00  6.006756717011E+00  6.150012358375E+00
  6.295218407519E+00  6.442288718408E+00  6.591127910991E+00  6.741630991664E+00
  6.893682982099E+00  7.047158559306E+00  7.201921710010E+00  7.357825402671E+00
  7.514711280729E+00  7.672409380866E+00  7.830737880352E+00  7.989502877741E+00
  8.148498211428E+00  8.307505320755E+00  8.466293154588E+00  8.624618132402E+00
  8.782224163090E+00  8.938842726810E+00  9.094193025232E+00  9.247982205614E+00
  9.399905664066E+00  9.549647433318E+00  9.696880660137E+00  9.841268177339E+00
  9.982463175042E+00  1.012010997544E+01  1.025384491491E+01  1.038329733668E+01
  1.050809069673E+01  1.062784378461E+01  1.074217206028E+01  1.085068910689E+01
  1.095300819831E+01  1.104874397915E+01  1.113751425367E+01  1.121894187841E+01
  1.129265675200E+01  1.135829789412E+01  1.141551560354E+01  1.146397368396E+01
  1.150335172413E+01  1.153334741728E+01  1.155367890303E+01  1.156408711323E+01
  1.156433810155E+01  1.155422533508E+01  1.153357192494E+01  1.150223277155E+01
  1.146009659929E+01  1.140708785468E+01  1.134316844159E+01  1.126833926726E+01
  1.118264157284E+01  1.108615802327E+01  1.097901353231E+01  1.086137580013E+01
  1.073345554322E+01  1.059550639867E+01  1.044782448821E+01  1.029074763076E+01
  1.012465419619E+01  9.949961597511E+00  9.767124423007E+00  9.576632215139E+00
  9.379006907801E+00  9.174799938845E+00  8.964589059852E+00  8.748974870134E+00
  8.528577106644E+00  8.304030725831E+00  8.075981817289E+00  7.845083392248E+00
  7.611991092414E+00  7.377358866329E+00  7.141834661147E+00  6.906056177561E+00
  6.670646734454E+00  6.436211287815E+00  6.203332645502E+00  5.972567915755E+00
  5.744445223110E+00  5.519460720844E+00  5.298075924224E+00  5.080715383445E+00
  4.867764710039E+00  4.659568751494E+00  4.456429224638E+00  4.258602284859E+00
  4.066298252332E+00  3.879682722403E+00  3.698877441675E+00  3.523962909423E+00
  3.354985301549E+00  3.191965827340E+00  3.034903434315E+00  2.883775368401E+00
  2.738539355162E+00  2.599135169647E+00  2.465486279847E+00  2.337501445021E+00
  2.215076272157E+00  2.098094723398E+00  1.986430568502E+00  1.879948777347E+00
  1.778506848309E+00  1.681956069212E+00  1.590142708257E+00  1.502909133152E+00
  1.420094857277E+00  1.341537512390E+00  1.267073747953E+00  1.196540057686E+00
  1.129773534424E+00  1.066612554796E+00  1.006897395601E+00  9.504707840942E-01
  8.971783846706E-01  8.468692246597E-01  7.993960621441E-01  7.546156988542E-01
  7.123892413046E-01  6.725823134117E-01  6.350652238730E-01  5.997130915977E-01
  5.664059324648E-01  5.350287106577E-01  5.054713576715E-01  4.776287622349E-01
  4.514007339858E-01  4.266919438571E-01  4.034118439150E-01  3.814745692708E-01
  3.607988245516E-01  3.413077572632E-01  3.229288202375E-01  3.055936251961E-01
  2.892377893188E-01  2.738007765498E-01  2.592257352280E-01  2.454593334829E-01
  2.324515936959E-01  2.201557271926E-01  2.085279701985E-01  1.975274219701E-01
  1.871158858929E-01  1.772577142272E-01  1.679196570819E-01  1.590707160961E-01
  1.506820032206E-01  1.427266049110E-01  1.351794519649E-01  1.280171951716E-01
  1.212180868783E-01  1.147618685229E-01  1.086296641336E-01  1.028038797542E-01
  9.726810871307E-02  9.200704262520E-02  8.700638798542E-02  8.225278819056E-02
  7.773375080756E-02  7.343757989011E-02  6.935331313436E-02  6.547066365560E-02
  6.177996616215E-02  5.827212729906E-02  5.493857993352E-02  5.177124115417E-02
  4.876247375965E-02  4.590505101512E-02  4.319212446111E-02  4.061719456495E-02
  3.817408401241E-02  3.585691344457E-02  3.366007945343E-02  3.157823465831E-02
  2.960626969374E-02  2.773929694894E-02  2.597263590759E-02  2.430179994588E-02
  2.272248445561E-02  2.123055616775E-02  1.982204356058E-02  1.849312824445E-02
  1.724013722329E-02  1.605953594115E-02  1.494792202752E-02  1.390201966475E-02
  1.291867450526E-02  1.199484907341E-02  1.112761859257E-02  1.031416718330E-02
  9.551784383844E-03  8.837861948730E-03  8.169890885975E-03  7.545458697294E-03
  6.962246789696E-03  6.418028030379E-03  5.910664420079E-03  5.438104863090E-03
  4.998383014924E-03  4.589615191136E-03  4.209998323174E-03  3.857807949228E-03
  3.531396230030E-03  3.229189981266E-03  2.949688715916E-03  2.691462691248E-03
  2.453150956512E-03  2.233459398522E-03  2.031158783408E-03  1.845082793666E-03
  1.674126060539E-03  1.517242192388E-03  1.373441800402E-03  1.241790523472E-03
  1.121407054519E-03  1.011461170938E-03  9.111717720971E-04  8.198049270594E-04
  7.366719358686E-04  6.611274078286E-04  5.925673602649E-04  5.304273412552E-04
  4.741805797710E-04  4.233361665891E-04  3.774372692084E-04  3.360593838565E-04
  2.988086274873E-04  2.653200724659E-04  2.352561264107E-04  2.083049594213E-04
  1.841789806638E-04  1.626133660232E-04  1.433646382596E-04  1.262093008341E-04
  1.109425262980E-04  9.737689986618E-05  8.534121853680E-05  7.467934585981E-05
  6.524912221331E-05  5.692133021295E-05  4.957871465969E-05  4.311505622634E-05
  3.743429789445E-05  3.244972298111E-05  2.808318344040E-05  2.426437698752E-05
  2.093017147427E-05  1.802397484353E-05  1.549514890648E-05  1.329846511942E-05
  1.139360048700E-05  9.744671683720E-06  8.319805465967E-06  7.090743440877E-06
  6.032479265193E-06  5.122926366033E-06  4.342614304803E-06  3.674411944341E-06
  3.103275626584E-06  2.616020622481E-06  2.201114176447E-06  1.848488533213E-06
  1.549372404595E-06  1.296139406326E-06  1.082172069943E-06  9.017401108009E-07
  7.498917099264E-07  6.223566439092E-07  5.154601726768E-07  4.260466693560E-07
  3.514120489371E-07  2.892441227642E-07  2.375700736270E-07  1.947103111553E-07
  1.592380291118E-07  1.299438448837E-07  1.058049568861E-07  8.595830765763E-08
  6.967728913163E-08  5.635157192970E-08  4.546968260013E-08  3.660399159202E-08
  2.939781052033E-08  2.355433005738E-08  1.882715971893E-08  1.501225804309E-08
  1.194106634240E-08  9.474681500382E-09  7.498923345593E-09  5.920170126658E-09
  4.661851690596E-09  3.661504286491E-09  2.868303627171E-09  2.241004085309E-09
  1.746221813378E-09  1.357008287421E-09  1.051668403109E-09  8.127839113686E-10
  6.264087739644E-10  4.814080428440E-10  3.689162086534E-10  2.818947038230E-10
  2.147714567651E-10  1.631481417051E-10  1.235631125316E-10  9.330000161265E-11
  7.023365281793E-11  5.270648371548E-11  3.942957188294E-11  2.940376685144E-11
  2.185697069670E-11  1.619443152233E-11  1.195947508569E-11  8.802590618981E-12
  6.457139760759E-12  3.304066739957E-12  2.401643104019E-12  1.739508221587E-12
  1.255407254592E-12  9.027436688534E-13  6.467660808181E-13  4.616512793349E-13
  3.282809551047E-13  2.325534240504E-13  1.641063983864E-13  1.153543793877E-13
  8.076594445127E-14  5.632324212350E-14  3.911933882084E-14  2.705944626594E-14
  1.864011691157E-14  1.278672163407E-14  8.734315981227E-15  5.940673532122E-15
  4.023067220564E-15  2.712508761212E-15  1.820767248072E-15  1.216701442803E-15
  8.093502812289E-16  5.359055372969E-16  3.531955443695E-16  2.316824677877E-16
  1.512507527267E-16  9.826604509326E-17  6.353101660580E-17  4.087135703521E-17
  2.616239252345E-17  1.666229857527E-17  1.055759543130E-17  6.654892430540E-18
  4.172880367940E-18  2.602689260655E-18  1.614628032951E-18  9.962271987006E-19
  6.112961421775E-19  3.730126352638E-19  2.263314913516E-19  1.365483811032E-19
  8.190651987274E-20  4.884392975155E-20  2.895559028246E-20  1.706290891885E-20
  9.994044910717E-21  5.817889441912E-21  3.365840681361E-21  1.935054289765E-21
  1.105430479423E-21  6.274442489718E-22  3.538266690602E-22  1.982181423278E-22
  1.103060778639E-22  0.000000000000E+00  0.000000000000E+00  0.000000000000E+00
  0.000000000000E+00
</data>
</radfunc>
</valence-charge>
<pseudocore-charge matching-radius="0.755189259950"
 number-of-continuous-derivatives="4">
<annotation model-charge-form="Teter function with specified parameters" />
<radfunc>
<data npts="290">
  3.457241098106E+01  3.456953484038E+01  3.456093739971E+01  3.454659495130E+01
  3.452665617933E+01  3.450044259647E+01  3.446703993940E+01  3.442879954969E+01
  3.438131967348E+01  3.433000251298E+01  3.427218054685E+01  3.420935760836E+01
  3.413346808366E+01  3.405425094293E+01  3.397515759330E+01  3.388410596233E+01
  3.377932591531E+01  3.368007335399E+01  3.356857346957E+01  3.344336156086E+01
  3.330281026669E+01  3.317811847117E+01  3.304144624927E+01  3.289169797167E+01
  3.272768944260E+01  3.254814324144E+01  3.235168440745E+01  3.219235718540E+01
  3.202202710210E+01  3.183999935164E+01  3.164554525450E+01  3.143790222651E+01
  3.121627407303E+01  3.097983167073E+01  3.072771410718E+01  3.045903035671E+01
  3.017286157999E+01  2.986826414398E+01  2.965448543086E+01  2.943179781550E+01
  2.919990881087E+01  2.895852430775E+01  2.870734952902E+01  2.844609010129E+01
  2.817445325214E+01  2.789214914159E+01  2.759889233633E+01  2.729440343536E+01
  2.697841085518E+01  2.665065278284E+01  2.631087930414E+01  2.595885471415E+01
  2.559436001579E+01  2.521719561150E+01  2.482718419124E+01  2.442417381856E+01
  2.400804121414E+01  2.357869523377E+01  2.313608053464E+01  2.268018142056E+01
  2.221102585233E+01  2.172868960535E+01  2.123330055114E+01  2.072504303368E+01
  2.020416230526E+01  1.967096897925E+01  1.912584344989E+01  1.884894513095E+01
  1.856924022060E+01  1.828679779569E+01  1.800169207399E+01  1.771400253035E+01
  1.742381400724E+01  1.713121681876E+01  1.683630684742E+01  1.653918563282E+01
  1.623996045138E+01  1.593874438613E+01  1.563565638575E+01  1.533082131176E+01
  1.502436997300E+01  1.471643914616E+01  1.440717158158E+01  1.409671599296E+01
  1.378522703018E+01  1.347286523385E+01  1.315979697074E+01  1.284619434876E+01
  1.253223511062E+01  1.221810250486E+01  1.190398513335E+01  1.159007677421E+01
  1.127657617904E+01  1.096368684376E+01  1.065161675184E+01  1.034057808955E+01
  1.003078693204E+01  9.722462900091E+00  9.415828786640E+00  9.111110152983E+00
  8.808534894258E+00  8.508332774189E+00  8.210734929174E+00  7.915973341996E+00
  7.624280285634E+00  7.335887737886E+00  7.051026767738E+00  6.769926894665E+00
  6.492815422333E+00  6.219916748407E+00  5.951451652517E+00  5.687636564689E+00
  5.428682816886E+00  5.174795880608E+00  4.926174593846E+00  4.683010380969E+00
  4.445486469506E+00  4.213777108050E+00  3.988046789862E+00  3.768449487036E+00
  3.555127900376E+00  3.348212730398E+00  3.147821975095E+00  2.954060260332E+00
  2.767018208871E+00  2.586771854169E+00  2.413382105160E+00  2.246894268235E+00
  2.087337632613E+00  1.934725125145E+00  1.789053040452E+00  1.650300851986E+00
  1.518431109288E+00  1.393389426275E+00  1.275104564841E+00  1.163488617484E+00
  1.058437291921E+00  9.598302998756E-01  8.675318513321E-01  7.813912545643E-01
  7.012436212104E-01  6.269106745235E-01  5.582016577469E-01  4.949143383285E-01
  4.368361024094E-01  3.837451327367E-01  3.354116618564E-01  2.915992911724E-01
  2.520663652341E-01  2.165673894521E-01  1.848544783823E-01  1.566788207691E-01
  1.317921467448E-01  1.099481819542E-01  9.090407294997E-02  7.442176800182E-02
  6.026933750286E-02  4.822221846394E-02  3.806436816759E-02  2.958931292347E-02
  2.260107902675E-02  1.691499446833E-02  1.235835167063E-02  8.770923507487E-03
  6.005327084956E-03  3.927232177989E-03  2.415413793075E-03  1.361651009317E-03
  6.704769822866E-04  2.587877130562E-04  5.531982080622E-05  1.003981061493E-08
  4.325141809778E-05  1.450631543786E-04  2.741926045129E-04  4.071691579007E-04
  5.273303760688E-04  6.238409607345E-04  6.907247517099E-04  7.259290379999E-04
  7.304390088312E-04  7.074582055473E-04  6.616684110664E-04  5.985796016640E-04
  5.239774755354E-04  4.434727694773E-04  3.621531974693E-04  2.843355197340E-04
  2.134121079684E-04  1.517835390795E-04  1.008663439794E-04  6.116316225319E-05
  3.238128841339E-05  1.358499418948E-05  3.367095197951E-06  2.598583700621E-08
  1.735743828554E-06  6.698820985874E-06  1.327317339220E-05  2.006830013409E-05
  2.600739481212E-05  3.035549955607E-05  3.271602101816E-05  3.300006969260E-05
  3.137469117833E-05  2.819707942533E-05  2.394224981003E-05  1.913140473098E-05
  1.426739661659E-05  9.782379829880E-06  6.001080479378E-06  3.121266457475E-06
  1.211147887569E-06  2.217567388818E-07  1.100018993410E-08  3.751763823759E-07
  1.083356048201E-06  1.910184907416E-06  2.663306378274E-06  3.202643795096E-06
  3.450073750913E-06  3.389397741840E-06  3.057801649347E-06  2.531021059402E-06
  1.905081071325E-06  1.277681915273E-06  7.320500208711E-07  3.254269433445E-07
  8.344144728479E-08  5.585374862658E-10  0.000000000000E+00  0.000000000000E+00
  0.000000000000E+00  0.000000000000E+00  0.000000000000E+00  0.000000000000E+00
  0.000000000000E+00  0.000000000000E+00  0.000000000000E+00  0.000000000000E+00
  0.000000000000E+00  0.000000000000E+00  0.000000000000E+00  0.000000000000E+00
  0.000000000000E+00  0.000000000000E+00  0.000000000000E+00  0.000000000000E+00
  0.000000000000E+00  0.000000000000E+00  0.000000000000E+00  0.000000000000E+00
  0.000000000000E+00  0.000000000000E+00  0.000000000000E+00  0.000000000000E+00
  0.000000000000E+00  0.000000000000E+00  0.000000000000E+00  0.000000000000E+00
  0.000000000000E+00  0.000000000000E+00  0.000000000000E+00  0.000000000000E+00
  0.000000000000E+00  0.000000000000E+00  0.000000000000E+00  0.000000000000E+00
  0.000000000000E+00  0.000000000000E+00  0.000000000000E+00  0.000000000000E+00
  0.000000000000E+00  0.000000000000E+00  0.000000000000E+00  0.000000000000E+00
  0.000000000000E+00  0.000000000000E+00  0.000000000000E+00  0.000000000000E+00
  0.000000000000E+00  0.000000000000E+00  0.000000000000E+00  0.000000000000E+00
  0.000000000000E+00  0.000000000000E+00  0.000000000000E+00  0.000000000000E+00
  0.000000000000E+00  0.000000000000E+00
</data>
</radfunc>
</pseudocore-charge>
<semilocal-potentials set="scalar_relativistic">
<slps n="4" l="s" rc="1.45540543585" eref="-2.36756344105">
<radfunc>
<data npts="290">
  7.351245006360E+01  7.343892482664E+01  7.321977298650E+01  7.285627923524E+01
  7.235526968290E+01  7.170411689579E+01  7.088653206516E+01  6.996684934033E+01
  6.884849793145E+01  6.766813363110E+01  6.637216870973E+01  6.500335289576E+01
  6.340190168882E+01  6.178805077748E+01  6.023262341561E+01  5.850748973267E+01
  5.660394723830E+01  5.487656075091E+01  5.301833331538E+01  5.102856359754E+01
  4.890845235247E+01  4.712068570830E+01  4.525437265006E+01  4.331329222457E+01
  4.130224610260E+01  3.922705590011E+01  3.709453299882E+01  3.546214084120E+01
  3.380541861676E+01  3.212818863840E+01  3.043448195463E+01  2.872850270623E+01
  2.701458899893E+01  2.529717106663E+01  2.358072759917E+01  2.186974117743E+01
  2.016865379393E+01  1.848182343637E+01  1.736728693984E+01  1.626218651905E+01
  1.516770012408E+01  1.408496422948E+01  1.301506989829E+01  1.195905926911E+01
  1.091792248816E+01  9.892595102391E+00  8.883955923626E+00  7.892825367468E+00
  6.919964265244E+00  5.966073141665E+00  5.031791945928E+00  4.117700219479E+00
  3.224317679648E+00  2.352105194955E+00  1.501466125034E+00  6.727479958692E-01
 -1.337555206461E-01 -9.178023549809E-01 -1.679199548837E+00 -2.417800557570E+00
 -3.133502378856E+00 -3.826242539723E+00 -4.495995973120E+00 -5.142771814103E+00
 -5.766610144349E+00 -6.367578712266E+00 -6.945769654442E+00 -7.226358175751E+00
 -7.501296242573E+00 -7.770600790353E+00 -8.034289678485E+00 -8.292381594252E+00
 -8.544895958303E+00 -8.791852831803E+00 -9.033272825393E+00 -9.269177010098E+00
 -9.499586830289E+00 -9.724524018838E+00 -9.944010514578E+00 -1.015806838218E+01
 -1.036671973453E+01 -1.056998665780E+01 -1.076789113919E+01 -1.096045499752E+01
 -1.114769981677E+01 -1.132964688267E+01 -1.150631712233E+01 -1.167773104718E+01
 -1.184390869911E+01 -1.200486960013E+01 -1.216063270539E+01 -1.231121635985E+01
 -1.245663825856E+01 -1.259691541078E+01 -1.273206410784E+01 -1.286209989505E+01
 -1.298703754763E+01 -1.310689105076E+01 -1.322167358400E+01 -1.333139751001E+01
 -1.343607436786E+01 -1.353571487103E+01 -1.363032891017E+01 -1.371992556088E+01
 -1.380451309668E+01 -1.388409900732E+01 -1.395869002265E+01 -1.402829214234E+01
 -1.409291067162E+01 -1.415255026338E+01 -1.420721496686E+01 -1.425690828333E+01
 -1.430163322904E+01 -1.434139240587E+01 -1.437618808000E+01 -1.440602226919E+01
 -1.443089683893E+01 -1.445081360820E+01 -1.446577446514E+01 -1.447578149346E+01
 -1.448083711001E+01 -1.448094421427E+01 -1.447610635053E+01 -1.446632788348E+01
 -1.445161418800E+01 -1.443197185423E+01 -1.440740890874E+01 -1.437793505293E+01
 -1.434356191990E+01 -1.430430335091E+01 -1.426017569305E+01 -1.421119811941E+01
 -1.415739297365E+01 -1.409878614067E+01 -1.403540744557E+01 -1.396729108302E+01
 -1.389447607965E+01 -1.381700679208E+01 -1.373493344376E+01 -1.364831270366E+01
 -1.355720831065E+01 -1.346169174721E+01 -1.336184296678E+01 -1.325775117904E+01
 -1.314951569779E+01 -1.303724685625E+01 -1.292106699445E+01 -1.280111152352E+01
 -1.267753007121E+01 -1.255048771254E+01 -1.242016628838E+01 -1.228676581360E+01
 -1.215050597441E+01 -1.201162771186E+01 -1.187039488532E+01 -1.172709600484E+01