<?xml version="1.0" encoding="UTF-8" ?>
<psml version="1.1" energy_unit="hartree" length_unit="bohr"
 uuid="f7900cf0-23d1-11e8-63be-f556dedf34b3"
 xmlns="http://esl.cecam.org/PSML/ns/1.1">
<provenance creator="ONCVPSP-3.3.0+psml-3.3.0-73 (scalar-relativistic)"
 date="2018-03-09">
<annotation action="semilocal-pseudopotential-generation"
 action-cont="projectors-generation" />
<input-file name="oncvpsp-input">
<![CDATA[# atsym z nc nv iexc psfile
N 7 1 2 -001012 upf
# n l f
1 0 2.0
2 0 2.0
2 1 3.0
# lmax
1
# l rc ep ncon nbas qcut
0 1.2 0.0 4 8 8.8
1 1.35 0.0 4 8 9.0
# lloc lpopt rc5 dvloc0
4 5 1.2 0.0
# l nproj debl
0 2 1.0
1 2 1.0
# icmod fcfact rcfact
3 4.0 1.5
# epsh1 epsh2 depsh
-12.0 12.0 0.02
# rlmax drl
6.0 0.01
 0
]]>
</input-file>
</provenance>
<pseudo-atom-spec atomic-label="N" atomic-number="7" z-pseudo="5"
 flavor="Hamann&apos;s oncvpsp" relativity="scalar" spin-dft="no"
 core-corrections="yes">
<annotation pseudo-energy="-9.66251214565" />
<exchange-correlation>
<annotation oncvpsp-xc-code="-1012" oncvpsp-xc-type="libxc-interface" />
<libxc-info number-of-functionals="2">
<functional name="Slater exchange (LDA)" type="exchange" id="1" />
<functional name="Perdew &amp; Wang (LDA)" type="correlation" id="12" />
</libxc-info>
</exchange-correlation>
<valence-configuration total-valence-charge="5">
<shell n="2" l="s" occupation="2" />
<shell n="2" l="p" occupation="3" />
</valence-configuration>
</pseudo-atom-spec>
<grid npts="457">
<annotation type="sampled from oncvpsp log grid"
 recipe="r(i:1..N) = r1*exp(a*(i-1)) + r=0; resampled"
 recipe-cont="r1: scale; a: step" scale="0.714285714286E-04"
 step="0.119285708653E-01" delta="0.500000000000E-02" rmax="44.2267415588" />
<grid-data>
  0.000000000000E+00  5.050273848726E-03  1.008752568157E-02  1.513289708366E-02
  2.014904090835E-02  2.527458982023E-02  3.058949562954E-02  3.572061921814E-02
  4.072908151017E-02  4.588912125880E-02  5.108981780357E-02  5.620545319168E-02
  6.183331834590E-02  6.721808592128E-02  7.307178711718E-02  7.849333904832E-02
  8.431714233393E-02  8.949905332213E-02  9.499943100341E-02  1.008378475076E-01
  1.070350778164E-01  1.122659819048E-01  1.177525251550E-01  1.235072008914E-01
  1.295431129985E-01  1.358740057603E-01  1.425142951564E-01  1.477066222222E-01
  1.530881251201E-01  1.586656962307E-01  1.644464790501E-01  1.704378773384E-01
  1.766475646022E-01  1.830834939228E-01  1.897539081417E-01  1.966673504179E-01
  2.038326751695E-01  2.112590594141E-01  2.163596981446E-01  2.215834866966E-01
  2.269333983994E-01  2.324124783703E-01  2.380238452481E-01  2.437706929678E-01
  2.496562925788E-01  2.556839941068E-01  2.618572284605E-01  2.681795093845E-01
  2.746544354591E-01  2.812856921488E-01  2.880770539000E-01  2.950323862894E-01
  3.021556482240E-01  3.094508941947E-01  3.169222765841E-01  3.245740480300E-01
  3.324105638456E-01  3.404362844991E-01  3.486557781520E-01  3.570737232597E-01
  3.656949112341E-01  3.745242491710E-01  3.835667626430E-01  3.928275985602E-01
  4.023120280998E-01  4.120254497063E-01  4.219733921640E-01  4.270370728700E-01
  4.321615177444E-01  4.373474559573E-01  4.425956254288E-01  4.479067729340E-01
  4.532816542092E-01  4.587210340597E-01  4.642256864684E-01  4.697963947060E-01
  4.754339514425E-01  4.811391588598E-01  4.869128287661E-01  4.927557827113E-01
  4.986688521039E-01  5.046528783291E-01  5.107087128690E-01  5.168372174235E-01
  5.230392640326E-01  5.293157352009E-01  5.356675240234E-01  5.420955343116E-01
  5.486006807234E-01  5.551838888921E-01  5.618460955588E-01  5.685882487055E-01
  5.754113076899E-01  5.823162433822E-01  5.893040383028E-01  5.963756867624E-01
  6.035321950036E-01  6.107745813436E-01  6.181038763198E-01  6.255211228356E-01
  6.330273763096E-01  6.406237048253E-01  6.483111892832E-01  6.560909235546E-01
  6.639640146373E-01  6.719315828129E-01  6.799947618067E-01  6.881546989484E-01
  6.964125553358E-01  7.047695059998E-01  7.132267400718E-01  7.217854609526E-01
  7.304468864841E-01  7.392122491219E-01  7.480827961113E-01  7.570597896647E-01
  7.661445071407E-01  7.753382412263E-01  7.846423001211E-01  7.940580077225E-01
  8.035867038152E-01  8.132297442610E-01  8.229885011921E-01  8.328643632064E-01
  8.428587355649E-01  8.529730403917E-01  8.632087168764E-01  8.735672214789E-01
  8.840500281366E-01  8.946586284743E-01  9.053945320160E-01  9.162592664001E-01
  9.272543775969E-01  9.383814301281E-01  9.496420072896E-01  9.610377113771E-01
  9.725701639136E-01  9.842410058806E-01  9.960518979512E-01  1.008004520727E+00
  1.020100574975E+00  1.032341781875E+00  1.044729883258E+00  1.057266641857E+00
  1.069953841559E+00  1.082793287658E+00  1.095786807109E+00  1.108936248795E+00
  1.122243483780E+00  1.135710405586E+00  1.149338930453E+00  1.163130997618E+00
  1.177088569590E+00  1.191213632425E+00  1.205508196014E+00  1.219974294366E+00
  1.234613985898E+00  1.249429353729E+00  1.264422505974E+00  1.279595576046E+00
  1.294950722958E+00  1.310490131634E+00  1.326216013213E+00  1.342130605372E+00
  1.358236172636E+00  1.374535006708E+00  1.391029426788E+00  1.407721779910E+00
  1.424614441269E+00  1.441709814564E+00  1.459010332339E+00  1.476518456327E+00
  1.494236677803E+00  1.512167517936E+00  1.530313528152E+00  1.548677290489E+00
  1.567261417975E+00  1.586068554991E+00  1.605101377651E+00  1.624362594183E+00
  1.643854945313E+00  1.663581204657E+00  1.683544179112E+00  1.703746709262E+00
  1.724191669773E+00  1.744881969810E+00  1.765820553448E+00  1.787010400089E+00
  1.808454524890E+00  1.830155979189E+00  1.852117850939E+00  1.874343265151E+00
  1.896835384332E+00  1.919597408944E+00  1.942632577852E+00  1.965944168786E+00
  1.989535498811E+00  2.013409924797E+00  2.037570843895E+00  2.062021694021E+00
  2.086765954350E+00  2.111807145802E+00  2.137148831552E+00  2.162794617530E+00
  2.188748152940E+00  2.215013130776E+00  2.241593288345E+00  2.268492407805E+00
  2.295714316699E+00  2.323262888499E+00  2.351142043161E+00  2.379355747679E+00
  2.407908016651E+00  2.436802912851E+00  2.466044547805E+00  2.495637082379E+00
  2.525584727368E+00  2.555891744096E+00  2.586562445025E+00  2.617601194365E+00
  2.649012408698E+00  2.680800557602E+00  2.712970164293E+00  2.745525806265E+00
  2.778472115940E+00  2.811813781331E+00  2.845555546707E+00  2.879702213268E+00
  2.914258639827E+00  2.949229743505E+00  2.984620500427E+00  3.020435946432E+00
  3.056681177789E+00  3.093361351923E+00  3.130481688146E+00  3.168047468404E+00
  3.206064038025E+00  3.244536806481E+00  3.283471248159E+00  3.322872903137E+00
  3.362747377974E+00  3.403100346510E+00  3.443937550668E+00  3.485264801276E+00
  3.527087978891E+00  3.569413034638E+00  3.612245991054E+00  3.655592942946E+00
  3.699460058262E+00  3.743853578961E+00  3.788779821908E+00  3.834245179771E+00
  3.880256121928E+00  3.926819195392E+00  3.973941025736E+00  4.021628318045E+00
  4.069887857862E+00  4.118726512156E+00  4.168151230302E+00  4.218169045066E+00
  4.268787073606E+00  4.320012518490E+00  4.371852668711E+00  4.424314900736E+00
  4.477406679545E+00  4.531135559699E+00  4.585509186416E+00  4.640535296653E+00
  4.696221720213E+00  4.752576380855E+00  4.809607297425E+00  4.867322584994E+00
  4.925730456014E+00  4.984839221487E+00  5.044657292144E+00  5.105193179650E+00
  5.166455497806E+00  5.228452963780E+00  5.291194399345E+00  5.354688732137E+00
  5.418944996923E+00  5.483972336886E+00  5.549780004928E+00  5.616377364988E+00
  5.683773893367E+00  5.751979180088E+00  5.821002930249E+00  5.890854965412E+00
  5.961545224997E+00  6.033083767697E+00  6.105480772909E+00  6.178746542184E+00
  6.252891500690E+00  6.327926198699E+00  6.403861313083E+00  6.480707648840E+00
  6.558476140626E+00  6.637177854314E+00  6.716823988565E+00  6.797425876428E+00
  6.878994986945E+00  6.961542926789E+00  7.045081441910E+00  7.129622419213E+00
  7.215177888244E+00  7.301760022902E+00  7.389381143177E+00  7.478053716895E+00
  7.567790361498E+00  7.658603845836E+00  7.750507091986E+00  7.843513177090E+00
  7.937635335215E+00  8.032886959238E+00  8.129281602749E+00  8.226832981982E+00
  8.325554977765E+00  8.425461637498E+00  8.526567177148E+00  8.628885983274E+00
  8.732432615074E+00  8.837221806454E+00  8.943268468132E+00  9.050587689749E+00
  9.159194742026E+00  9.269105078931E+00  9.380334339878E+00  9.492898351956E+00
  9.606813132180E+00  9.722094889766E+00  9.838760028443E+00  9.956825148785E+00
  1.007630705057E+01  1.019722273518E+01  1.031958940800E+01  1.044342448089E+01
  1.056874557467E+01  1.069557052156E+01  1.082391736782E+01  1.095380437623E+01
  1.108525002875E+01  1.121827302909E+01  1.135289230544E+01  1.148912701311E+01
  1.162699653727E+01  1.176652049571E+01  1.190771874166E+01  1.205061136656E+01
  1.219521870296E+01  1.234156132740E+01  1.248966006332E+01  1.263953598408E+01
  1.279121041589E+01  1.294470494088E+01  1.310004140017E+01  1.325724189698E+01
  1.341632879974E+01  1.357732474534E+01  1.374025264228E+01  1.390513567399E+01
  1.407199730208E+01  1.424086126970E+01  1.441175160494E+01  1.458469262420E+01
  1.475970893569E+01  1.493682544292E+01  1.511606734823E+01  1.529746015641E+01
  1.548102967829E+01  1.566680203443E+01  1.585480365884E+01  1.604506130275E+01
  1.623760203838E+01  1.643245326284E+01  1.662964270199E+01  1.682919841442E+01
  1.703114879539E+01  1.723552258093E+01  1.744234885191E+01  1.765165703813E+01
  1.786347692259E+01  1.807783864566E+01  1.829477270940E+01  1.851430998192E+01
  1.873648170170E+01  1.896131948212E+01  1.918885531591E+01  1.941912157970E+01
  1.965215103865E+01  1.988797685112E+01  2.012663257333E+01  2.036815216421E+01
  2.061256999018E+01  2.085992083006E+01  2.111023988002E+01  2.136356275858E+01
  2.161992551169E+01  2.187936461783E+01  2.214191699324E+01  2.240761999716E+01
  2.267651143713E+01  2.294862957437E+01  2.322401312927E+01  2.350270128682E+01
  2.378473370226E+01  2.407015050669E+01  2.435899231277E+01  2.465130022052E+01
  2.494711582316E+01  2.524648121304E+01  2.554943898760E+01  2.585603225545E+01
  2.616630464252E+01  2.648030029823E+01  2.679806390180E+01  2.711964066863E+01
  2.744507635665E+01  2.777441727293E+01  2.810771028020E+01  2.844500280357E+01
  2.878634283721E+01  2.913177895126E+01  2.948136029867E+01  2.983513662226E+01
  3.019315826172E+01  3.055547616086E+01  3.092214187479E+01  3.129320757729E+01
  3.166872606822E+01  3.204875078104E+01  3.243333579041E+01  3.282253581989E+01
  3.321640624973E+01  3.361500312473E+01  3.401838316223E+01  3.442660376017E+01
  3.483972300530E+01  3.525779968136E+01  3.568089327754E+01  3.610906399687E+01
  3.654237276483E+01  3.698088123801E+01  3.742465181286E+01  3.787374763462E+01
  3.832823260623E+01  3.878817139751E+01  3.925362945428E+01  3.972467300773E+01
  4.020136908382E+01  4.068378551283E+01  4.117199093898E+01  4.166605483025E+01
  4.216604748821E+01  4.267204005807E+01  4.318410453877E+01  4.370231379323E+01
  4.422674155875E+01
</grid-data>
</grid>
<valence-charge total-charge="5" is-unscreening-charge="yes"
 rescaled-to-z-pseudo="no">
<radfunc>
<data npts="457">
  1.026903436374E+00  1.028094454794E+00  1.031653971498E+00  1.037589693624E+00
  1.045836621117E+00  1.056670263661E+00  1.070460828422E+00  1.086229139663E+00
  1.103929496587E+00  1.124531582147E+00  1.147702896933E+00  1.172827511509E+00
  1.203107221070E+00  1.234632141134E+00  1.271690136761E+00  1.308558441056E+00
  1.350837785669E+00  1.390740639920E+00  1.435397485446E+00  1.485331526759E+00
  1.541111840260E+00  1.590357554440E+00  1.644074526606E+00  1.702617622864E+00
  1.766358959438E+00  1.835686182933E+00  1.910999979089E+00  1.971660593686E+00
  2.036094557630E+00  2.104477370299E+00  2.176983196118E+00  2.253782945580E+00
  2.335042019718E+00  2.420917681423E+00  2.511556016082E+00  2.607088443980E+00
  2.707627747993E+00  2.813263582693E+00  2.886550567081E+00  2.962140824162E+00
  3.040037016685E+00  3.120233489254E+00  3.202715362972E+00  3.287457580123E+00
  3.374423900921E+00  3.463565855311E+00  3.554821653979E+00  3.648115064007E+00
  3.743354256063E+00  3.840430631657E+00  3.939217640804E+00  4.039569602390E+00
  4.141320541717E+00  4.244283061987E+00  4.348247268908E+00  4.452979770183E+00
  4.558222774205E+00  4.663693314957E+00  4.769082632624E+00  4.874055741928E+00
  4.978251222350E+00  5.081281266329E+00  5.182732022870E+00  5.282164274848E+00
  5.379114488228E+00  5.473096270564E+00  5.563602274026E+00  5.607388157842E+00
  5.650106574875E+00  5.691689355117E+00  5.732067556506E+00  5.771171583933E+00
  5.808931316710E+00  5.845276244508E+00  5.880135611694E+00  5.913438570010E+00
  5.945114339417E+00  5.975092376916E+00  6.003302553083E+00  6.029675335989E+00
  6.054141982128E+00  6.076634733889E+00  6.097087023058E+00  6.115433679761E+00
  6.131611146187E+00  6.145557694368E+00  6.157213647219E+00  6.166521601985E+00
  6.173426655161E+00  6.177876627916E+00  6.179822290978E+00  6.179217587886E+00
  6.176019855488E+00  6.170190040513E+00  6.161692911019E+00  6.150497261495E+00
  6.136576110406E+00  6.119906888931E+00  6.100471619690E+00  6.078257084264E+00
  6.053254978336E+00  6.025462053334E+00  5.994880243518E+00  5.961516777502E+00
  5.925384273283E+00  5.886500815944E+00  5.844890017273E+00  5.800581056642E+00
  5.753608702600E+00  5.704013314723E+00  5.651840825374E+00  5.597142701138E+00
  5.539975883759E+00  5.480402710543E+00  5.418490814219E+00  5.354313002346E+00
  5.287947116403E+00  5.219475870725E+00  5.148986671460E+00  5.076571415750E+00
  5.002326271293E+00  4.926351436431E+00  4.848750880855E+00  4.769632066967E+00
  4.689105651888E+00  4.607285170033E+00  4.524286696132E+00  4.440228488564E+00
  4.355230612846E+00  4.269414545168E+00  4.182902755990E+00  4.095818273800E+00
  4.008284229436E+00  3.920423381640E+00  3.832357624933E+00  3.744207481407E+00
  3.656091578640E+00  3.568126116658E+00  3.480424327664E+00  3.393095933181E+00
  3.306246604190E+00  3.219977430884E+00  3.134384409659E+00  3.049557955972E+00
  2.965582452599E+00  2.882535843601E+00  2.800489284920E+00  2.719506862802E+00
  2.639645391286E+00  2.560954299571E+00  2.483475619198E+00  2.407244079645E+00
  2.332287318975E+00  2.258626213677E+00  2.186275328762E+00  2.115243670784E+00
  2.045536316131E+00  1.977156528040E+00  1.910106723362E+00  1.844388893830E+00
  1.780005371261E+00  1.716959378839E+00  1.655255512218E+00  1.594900102129E+00
  1.535901439580E+00  1.478269525683E+00  1.422014376762E+00  1.367143648695E+00
  1.313662316263E+00  1.261573159343E+00  1.210876653393E+00  1.161571084567E+00
  1.113652633756E+00  1.067115465971E+00  1.021951821681E+00  9.781521096548E-01
  9.357050009728E-01  8.945975238251E-01  8.548151587801E-01  8.163419341810E-01
  7.791605213607E-01  7.432523293734E-01  7.085975989620E-01  6.751754954744E-01
  6.429642005098E-01  6.119410020262E-01  5.820823827047E-01  5.533641063680E-01
  5.257613022580E-01  4.992485470223E-01  4.737999442416E-01  4.493892013699E-01
  4.259897039705E-01  4.035745871436E-01  3.821168040607E-01  3.615891915339E-01
  3.419645325642E-01  3.232156158275E-01  3.053152920679E-01  2.882365273856E-01
  2.719524534135E-01  2.564364143933E-01  2.416620111685E-01  2.276031421259E-01
  2.142340411232E-01  2.015293124521E-01  1.894639628918E-01  1.780134309168E-01
  1.671536131307E-01  1.568608879992E-01  1.471121369666E-01  1.378847630415E-01
  1.291567069400E-01  1.209064608833E-01  1.131130801438E-01  1.057561924394E-01
  9.881600527670E-02  9.227331134498E-02  8.610949206284E-02  8.030651938106E-02
  7.484695594389E-02  6.971395371107E-02  6.489125114166E-02  6.036316903969E-02
  5.611460515981E-02  5.213102766952E-02  4.839846756223E-02  4.490351011300E-02
  4.163328546645E-02  3.857545844331E-02  3.571821764915E-02  3.305026396612E-02
  3.056079850480E-02  2.823951009035E-02  2.607656235368E-02  2.406258049504E-02
  2.218863778365E-02  2.044624185404E-02  1.882732085578E-02  1.732420951020E-02
  1.592963512394E-02  1.463670360616E-02  1.343888553240E-02  1.233000229524E-02
  1.130421237842E-02  1.035599778803E-02  9.480150671328E-03  8.671760150834E-03
  7.926199398364E-03  7.239112971108E-03  6.606404429093E-03  6.024224250907E-03
  5.488958062182E-03  4.997215189031E-03  4.545817546519E-03  4.131788870198E-03
  3.752344296849E-03  3.404880298808E-03  3.086964974577E-03  2.796328696906E-03
  2.530855118119E-03  2.288572531149E-03  2.067645583569E-03  1.866367340835E-03
  1.683151693983E-03  1.516526106156E-03  1.365124691578E-03  1.227681619900E-03
  1.103024838275E-03  9.900701030050E-04  8.878153121784E-04  7.953351303859E-04
  7.117758962969E-04  6.363508036872E-04  5.683353463406E-04  5.070630171547E-04
  4.519212517284E-04  4.023476067087E-04  3.578261632108E-04  3.178841457044E-04
  2.820887468678E-04  2.500441490503E-04  2.213887331529E-04  1.957924659201E-04
  1.729544568497E-04  1.526006761486E-04  1.344818254007E-04  1.183713528654E-04
  1.040636055816E-04  9.137211071670E-05  8.012797887232E-05  7.017842232996E-05
  6.138538149359E-05  5.362425306212E-05  4.678271373628E-05  4.075963353598E-05
  3.546407307114E-05  3.081435937208E-05  2.673723514397E-05  2.316707656226E-05
  2.004517497280E-05  1.731907810032E-05  1.494198660232E-05  1.287220203176E-05
  1.107262249047E-05  9.510282466989E-06  8.155933556042E-06  6.983662953355E-06
  5.970546807723E-06  5.096335693304E-06  4.343169638232E-06  3.695320311348E-06
  3.138958127006E-06  2.661942178736E-06  2.253631056091E-06  1.904712735461E-06
  1.607051865074E-06  1.353552887114E-06  1.138037555841E-06  9.551355202118E-07
  8.001867427445E-07  6.691546235679E-07  5.585487899154E-07  4.653565969318E-07
  3.869824658104E-07  3.211942601557E-07  2.660759712827E-07  2.199860481526E-07
  1.815207679912E-07  1.494820995906E-07  1.228495630403E-07  1.007556374074E-07
  8.246431188893E-08  6.735241639957E-08  5.489340465112E-08  4.464329671524E-08
  3.622851904684E-08  2.933540816564E-08  2.370116983914E-08  1.910610885938E-08
  1.536696553188E-08  1.233121396563E-08  9.872194325685E-09  7.884966537434E-09
  6.282786657213E-09  4.994119384800E-09  3.960111116644E-09  3.132457646189E-09
  2.471609221596E-09  1.945263277153E-09  1.527101860489E-09  1.195736674100E-09
  9.338298202067E-10  7.273628597475E-10  5.650307396148E-10  4.377405717479E-10
  3.381982217801E-10  2.605682368858E-10  2.001948602513E-10  1.533737864680E-10
  1.171659469266E-10  8.924601168835E-11  6.777948524548E-11  5.132328552816E-11
  3.874555277574E-11  2.916115888969E-11  2.187999746357E-11  1.636564632713E-11
  1.220242253441E-11  9.069206778260E-12  6.718711061947E-12  4.961109455323E-12
  3.651154955384E-12  2.678072752451E-12  1.957650813739E-12  1.426110063236E-12
  1.035271698362E-12  7.488915202984E-13  5.397890753115E-13  0.000000000000E+00
  0.000000000000E+00  0.000000000000E+00  0.000000000000E+00  0.000000000000E+00
  0.000000000000E+00  0.000000000000E+00  0.000000000000E+00  0.000000000000E+00
  0.000000000000E+00  0.000000000000E+00  0.000000000000E+00  0.000000000000E+00
  0.000000000000E+00  0.000000000000E+00  0.000000000000E+00  0.000000000000E+00
  0.000000000000E+00  0.000000000000E+00  0.000000000000E+00  0.000000000000E+00
  0.000000000000E+00  0.000000000000E+00  0.000000000000E+00  0.000000000000E+00
  0.000000000000E+00  0.000000000000E+00  0.000000000000E+00  0.000000000000E+00
  0.000000000000E+00  0.000000000000E+00  0.000000000000E+00  0.000000000000E+00
  0.000000000000E+00  0.000000000000E+00  0.000000000000E+00  0.000000000000E+00
  0.000000000000E+00  0.000000000000E+00  0.000000000000E+00  0.000000000000E+00
  0.000000000000E+00  0.000000000000E+00  0.000000000000E+00  0.000000000000E+00
  0.000000000000E+00  0.000000000000E+00  0.000000000000E+00  0.000000000000E+00
  0.000000000000E+00  0.000000000000E+00  0.000000000000E+00  0.000000000000E+00
  0.000000000000E+00  0.000000000000E+00  0.000000000000E+00  0.000000000000E+00
  0.000000000000E+00  0.000000000000E+00  0.000000000000E+00  0.000000000000E+00
  0.000000000000E+00  0.000000000000E+00  0.000000000000E+00  0.000000000000E+00
  0.000000000000E+00  0.000000000000E+00  0.000000000000E+00  0.000000000000E+00
  0.000000000000E+00  0.000000000000E+00  0.000000000000E+00  0.000000000000E+00
  0.000000000000E+00  0.000000000000E+00  0.000000000000E+00  0.000000000000E+00
  0.000000000000E+00
</data>
</radfunc>
</valence-charge>
<pseudocore-charge matching-radius="0.453281654209"
 number-of-continuous-derivatives="4">
<annotation model-charge-form="Teter function with specified parameters" />
<radfunc>
<data npts="290">
  2.446352215545E+01  2.445925823420E+01  2.444651457003E+01  2.442526253172E+01
  2.439573312831E+01  2.435693731237E+01  2.430754554486E+01  2.425106059341E+01
  2.418764220029E+01  2.411381043532E+01  2.403074949685E+01  2.394066027353E+01
  2.383204947572E+01  2.371892865304E+01  2.358589575104E+01  2.345348079289E+01
  2.330155284964E+01  2.315808582800E+01  2.299743356081E+01  2.281767808203E+01
  2.261672504216E+01  2.243917677128E+01  2.224535795835E+01  2.203394253085E+01
  2.180353091042E+01  2.155265370085E+01  2.127977762756E+01  2.105973001130E+01
  2.082572863582E+01  2.057707658565E+01  2.031307122125E+01  2.003300947297E+01
  1.973619411435E+01  1.942194111741E+01  1.908958819312E+01  1.873850461827E+01
  1.836810244389E+01  1.797784916993E+01  1.770642003556E+01  1.742584399041E+01
  1.713602339942E+01  1.683688212322E+01  1.652836804674E+01  1.621045573802E+01
  1.588314922910E+01  1.554648490790E+01  1.520053450643E+01  1.484540816690E+01
  1.448125756303E+01  1.410827904892E+01  1.372671680292E+01  1.333686592817E+01
  1.293907546542E+01  1.253375126756E+01  1.212135867872E+01  1.170242495380E+01
  1.127754134776E+01  1.084736479747E+01  1.041261911217E+01  9.974095583697E+00
  9.532652922104E+00  9.089216419375E+00  8.644776241775E+00  8.200384751660E+00
  7.757152762305E+00  7.316244635059E+00  6.878872137519E+00  6.661901584492E+00
  6.446286994797E+00  6.232189632833E+00  6.019772084021E+00  5.809197903814E+00
  5.600631245219E+00  5.394236465165E+00  5.190177710215E+00  4.988618482290E+00
  4.789721185248E+00  4.593646653338E+00  4.400553662773E+00  4.210598427834E+00
  4.023934083165E+00  3.840710154127E+00  3.661072017287E+00  3.485160353388E+00
  3.313110595327E+00  3.145052373946E+00  2.981108964625E+00  2.821396737924E+00
  2.666024617708E+00  2.515093550408E+00  2.368695989231E+00  2.226915397341E+00
  2.089825774128E+00  1.957491208832E+00  1.829965465866E+00  1.707291606229E+00
  1.589501649410E+00  1.476616280157E+00  1.368644604398E+00  1.265583958484E+00
  1.167419775697E+00  1.074125513777E+00  9.856626468622E-01  9.019807248892E-01
  8.230175030715E-01  7.486991435501E-01  6.789404907615E-01  6.136454214415E-01
  5.527072694601E-01  4.960093250052E-01  4.434254067496E-01  3.948205048670E-01
  3.500514918477E-01  3.089678971786E-01  2.714127410360E-01  2.372234212235E-01
  2.062326466931E-01  1.782694101177E-01  1.531599911628E-01  1.307289813548E-01
  1.108003207735E-01  9.319833623207E-02  7.774877016721E-02  6.427978916118E-02
  5.262296087454E-02  4.261418819904E-02  3.409458965655E-02  2.691131548315E-02
  2.091828945290E-02  1.597686731781E-02  1.195640376487E-02  8.734721012736E-03
  6.198473575147E-03  4.243405288845E-03  2.774496415016E-03  1.706000445897E-03
  9.613721463992E-04  4.730902937282E-04  1.823805012037E-04  3.884537737578E-05
  1.102765434680E-08  3.080050170141E-05  1.029461754127E-04  1.943541837264E-04
  2.884348466367E-04  3.734135191232E-04  4.416364182209E-04  4.888857194544E-04
  5.137175646158E-04  5.168355908459E-04  5.005111987582E-04  4.680600608858E-04
  4.233823811378E-04  3.705722144741E-04  3.135988183772E-04  2.560606177011E-04
  2.010100118503E-04  1.508450299436E-04  1.072618356472E-04  7.126038223311E-05
  4.319419256635E-05  2.285434514053E-05  9.577323519292E-06  2.366447610058E-06
  1.714141802019E-08  1.237268163388E-06  4.755120020656E-06  9.409304009224E-06
  1.421661712476E-05  1.841593923622E-05  2.148807220838E-05  2.315320057217E-05
  2.334913526871E-05  2.219463793737E-05  1.994284444036E-05  1.693007913020E-05
  1.352517635918E-05  1.008383862897E-05  6.911630354366E-06  4.238029170863E-06
  2.202649756933E-06  8.534447742821E-07  1.554983836929E-07  8.070558841696E-09
  2.669106056079E-07  7.685870972238E-07  1.353689883650E-06  1.886217113272E-06
  2.267196687637E-06  2.441506516150E-06  2.397831271864E-06  2.162600305749E-06
  1.789478312764E-06  1.346439693015E-06  9.025998064945E-07  5.167971482766E-07
  2.294616233837E-07  5.864756291954E-08  3.659747404071E-10  0.000000000000E+00
  0.000000000000E+00  0.000000000000E+00  0.000000000000E+00  0.000000000000E+00
  0.000000000000E+00  0.000000000000E+00  0.000000000000E+00  0.000000000000E+00
  0.000000000000E+00  0.000000000000E+00  0.000000000000E+00  0.000000000000E+00
  0.000000000000E+00  0.000000000000E+00  0.000000000000E+00  0.000000000000E+00
  0.000000000000E+00  0.000000000000E+00  0.000000000000E+00  0.000000000000E+00
  0.000000000000E+00  0.000000000000E+00  0.000000000000E+00  0.000000000000E+00
  0.000000000000E+00  0.000000000000E+00  0.000000000000E+00  0.000000000000E+00
  0.000000000000E+00  0.000000000000E+00  0.000000000000E+00  0.000000000000E+00
  0.000000000000E+00  0.000000000000E+00  0.000000000000E+00  0.000000000000E+00
  0.000000000000E+00  0.000000000000E+00  0.000000000000E+00  0.000000000000E+00
  0.000000000000E+00  0.000000000000E+00  0.000000000000E+00  0.000000000000E+00
  0.000000000000E+00  0.000000000000E+00  0.000000000000E+00  0.000000000000E+00
  0.000000000000E+00  0.000000000000E+00  0.000000000000E+00  0.000000000000E+00
  0.000000000000E+00  0.000000000000E+00  0.000000000000E+00  0.000000000000E+00
  0.000000000000E+00  0.000000000000E+00  0.000000000000E+00  0.000000000000E+00
  0.000000000000E+00  0.000000000000E+00  0.000000000000E+00  0.000000000000E+00
  0.000000000000E+00  0.000000000000E+00  0.000000000000E+00  0.000000000000E+00
  0.000000000000E+00  0.000000000000E+00  0.000000000000E+00  0.000000000000E+00
  0.000000000000E+00  0.000000000000E+00  0.000000000000E+00  0.000000000000E+00
  0.000000000000E+00  0.000000000000E+00  0.000000000000E+00  0.000000000000E+00
  0.000000000000E+00  0.000000000000E+00  0.000000000000E+00  0.000000000000E+00
  0.000000000000E+00  0.000000000000E+00  0.000000000000E+00  0.000000000000E+00
  0.000000000000E+00  0.000000000000E+00
</data>
</radfunc>
</pseudocore-charge>
<semilocal-potentials set="scalar_relativistic">
<slps n="2" l="s" rc="1.20550819601" eref="-0.676963277367">
<radfunc>
<data npts="290">
  4.533294472221E+00  4.531255843621E+00  4.525163463457E+00  4.515005109855E+00
  4.500893611040E+00  4.482359865100E+00  4.458773980030E+00  4.431814364315E+00
  4.401562568243E+00  4.366366089819E+00  4.326799065641E+00  4.283918779921E+00
  4.232270575622E+00  4.178533162014E+00  4.115408727302E+00  4.052654544503E+00
  3.980746955496E+00  3.912935856939E+00  3.837107377425E+00  3.752393327572E+00
  3.657852393254E+00  3.574464706011E+00  3.483586565171E+00  3.384636363771E+00
  3.277005882650E+00  3.160063136568E+00  3.033156335707E+00  2.931036855294E+00
  2.822653621852E+00  2.707721788946E+00  2.585958305834E+00  2.457084603942E+00
  2.320829688191E+00  2.176933662395E+00  2.025151715380E+00  1.865258590501E+00
  1.697053555785E+00  1.520365884529E+00  1.397793320558E+00  1.271360232228E+00
  1.141046200573E+00  1.006841045525E+00  8.687458095846E-01  7.267737740548E-01
  5.809515030368E-01  4.313199093809E-01  2.779353357022E-01  1.208706423964E-01
 -3.978370666509E-02 -2.039185714144E-01 -3.714050879012E-01 -5.420936591710E-01
 -7.158129997537E-01 -8.923692503630E-01 -1.071545180969E+00 -1.253099501958E+00
 -1.436766304608E+00 -1.622254653498E+00 -1.809248354795E+00 -1.997405925404E+00
 -2.186360788822E+00 -2.375721723966E+00 -2.565073593290E+00 -2.753978375889E+00
 -2.941976530050E+00 -3.128588707480E+00 -3.313317838243E+00 -3.404816680836E+00
 -3.495651600902E+00 -3.585756645066E+00 -3.675065286335E+00 -3.763510535082E+00
 -3.851025055942E+00 -3.937541290454E+00 -4.022991585188E+00 -4.107308325060E+00
 -4.190424071470E+00 -4.272271704814E+00 -4.352784570855E+00 -4.431896630358E+00
 -4.509542611292E+00 -4.585658162839E+00 -4.660180010323E+00 -4.733046110097E+00
 -4.804195803324E+00 -4.873569967465E+00 -4.941111164221E+00 -5.006763782537E+00
 -5.070474175206E+00 -5.132190787522E+00 -5.191864276314E+00 -5.249447617670E+00
 -5.304896201564E+00 -5.358167911585E+00 -5.409223187932E+00 -5.458025071877E+00
 -5.504539229906E+00 -5.548733955862E+00 -5.590580149527E+00 -5.630051270238E+00
 -5.667123264390E+00 -5.701774465936E+00 -5.733985469376E+00 -5.763738975129E+00
 -5.791019607721E+00 -5.815813707750E+00 -5.838109099331E+00 -5.857894835401E+00
 -5.875160924172E+00 -5.889898040888E+00 -5.902097230073E+00 -5.911749604527E+00
 -5.918846048432E+00 -5.923376933128E+00 -5.925331855313E+00 -5.924699408587E+00
 -5.921467000469E+00 -5.915620728063E+00 -5.907145326556E+00 -5.896024205544E+00
 -5.882239588791E+00 -5.865772773312E+00 -5.846604523677E+00 -5.824715616933E+00
 -5.800087552573E+00 -5.772703440400E+00 -5.742549076848E+00 -5.709614217278E+00
 -5.673894047856E+00 -5.635390855708E+00 -5.594115890234E+00 -5.550091401447E+00
 -5.503352833250E+00 -5.453951140423E+00 -5.401955188062E+00 -5.347454181205E+00
 -5.290560060784E+00 -5.231409789975E+00 -5.170167442972E+00 -5.107025996623E+00
 -5.042208714820E+00 -4.975970006853E+00 -4.908595634791E+00 -4.840402142494E+00
 -4.771735380888E+00 -4.702968011869E+00 -4.634495887470E+00 -4.566733222818E+00
 -4.500106511371E+00 -4.435047169460E+00 -4.371982944113E+00 -4.311328172706E+00
 -4.253473043944E+00 -4.198772074690E+00 -4.147532083384E+00 -4.098422743821E+00
 -4.049859467897E+00 -4.001861945386E+00 -3.954425146320E+00 -3.907544128632E+00
 -3.861213960513E+00 -3.815429649495E+00 -3.770186065580E+00 -3.725477863971E+00