<?xml version="1.0" encoding="UTF-8" ?>
<psml version="1.1" energy_unit="hartree" length_unit="bohr"
 uuid="0dc7c3a0-23d2-11e8-6cc5-00ccdefa5c00"
 xmlns="http://esl.cecam.org/PSML/ns/1.1">
<provenance creator="ONCVPSP-3.3.0+psml-3.3.0-73 (scalar-relativistic)"
 date="2018-03-09">
<annotation action="semilocal-pseudopotential-generation"
 action-cont="projectors-generation" />
<input-file name="oncvpsp-input">
<![CDATA[# atsym z nc nv iexc psfile
Na 11 1 3 -001012 upf
# n l f
1 0 2.0
2 0 2.0
2 1 6.0
3 0 1.0
# lmax
1
# l rc ep ncon nbas qcut
0 1.2 0.0 4 7 9.0
1 1.55 0.0 4 7 9.0
# lloc lpopt rc5 dvloc0
4 5 1.2 0.0
# l nproj debl
0 2 1.0
1 2 3.0
# icmod fcfact rcfact
0 0.04 0.0
# epsh1 epsh2 depsh
-12.0 12.0 0.02
# rlmax drl
4.0 0.01
 0
]]>
</input-file>
</provenance>
<pseudo-atom-spec atomic-label="Na" atomic-number="11" z-pseudo="9"
 flavor="Hamann&apos;s oncvpsp" relativity="scalar" spin-dft="no"
 core-corrections="no">
<annotation pseudo-energy="-45.5611283750" />
<exchange-correlation>
<annotation oncvpsp-xc-code="-1012" oncvpsp-xc-type="libxc-interface" />
<libxc-info number-of-functionals="2">
<functional name="Slater exchange (LDA)" type="exchange" id="1" />
<functional name="Perdew &amp; Wang (LDA)" type="correlation" id="12" />
</libxc-info>
</exchange-correlation>
<valence-configuration total-valence-charge="9">
<shell n="2" l="s" occupation="2" />
<shell n="2" l="p" occupation="6" />
<shell n="3" l="s" occupation="1" />
</valence-configuration>
</pseudo-atom-spec>
<grid npts="457">
<annotation type="sampled from oncvpsp log grid"
 recipe="r(i:1..N) = r1*exp(a*(i-1)) + r=0; resampled"
 recipe-cont="r1: scale; a: step" scale="0.454545454545E-04"
 step="0.119285708653E-01" delta="0.500000000000E-02" rmax="44.2842989144" />
<grid-data>
  0.000000000000E+00  5.056846352100E-03  1.010065374127E-02  1.515259126661E-02
  2.017526317734E-02  2.530748255671E-02  3.062930526546E-02  3.576710657652E-02
  4.078208695772E-02  4.594884206075E-02  5.115630687128E-02  5.627859982527E-02
  6.191378916899E-02  6.730556456298E-02  7.316688385485E-02  7.859549147632E-02
  8.442687394831E-02  8.961552875446E-02  9.512306471111E-02  1.009690794195E-01
  1.071743748984E-01  1.124120865651E-01  1.179057700863E-01  1.236679350454E-01
  1.297117023806E-01  1.360508342627E-01  1.426997654326E-01  1.478988498720E-01
  1.532873563398E-01  1.588721861865E-01  1.646604922048E-01  1.706596877901E-01
  1.768774564356E-01  1.833217615728E-01  1.900008567704E-01  1.969232963057E-01
  2.040979461202E-01  2.115339951745E-01  2.166412719540E-01  2.218718588240E-01
  2.272287329835E-01  2.327149435126E-01  2.383336131088E-01  2.440879398637E-01
  2.499811990838E-01  2.560167451544E-01  2.621980134495E-01  2.685285222862E-01
  2.750118749283E-01  2.816517616365E-01  2.884519617695E-01  2.954163459344E-01
  3.025488781907E-01  3.098536183057E-01  3.173347240661E-01  3.249964536439E-01
  3.328431680207E-01  3.408793334694E-01  3.491095240967E-01  3.575384244465E-01
  3.661708321663E-01  3.750116607381E-01  3.840659422750E-01  3.933388303853E-01
  4.028356031061E-01  4.125616659075E-01  4.225225547692E-01  4.275928254264E-01
  4.327239393315E-01  4.379166266035E-01  4.431716261228E-01  4.484896856362E-01
  4.538715618639E-01  4.593180206062E-01  4.648298368535E-01  4.704077948957E-01
  4.760526884345E-01  4.817653206957E-01  4.875465045441E-01  4.933970625986E-01
  4.993178273498E-01  5.053096412780E-01  5.113733569733E-01  5.175098372570E-01
  5.237199553041E-01  5.300045947677E-01  5.363646499049E-01  5.428010257038E-01
  5.493146380122E-01  5.559064136684E-01  5.625772906324E-01  5.693282181200E-01
  5.761601567374E-01  5.830740786183E-01  5.900709675617E-01  5.971518191724E-01
  6.043176410025E-01  6.115694526945E-01  6.189082861269E-01  6.263351855604E-01
  6.338512077871E-01  6.414574222806E-01  6.491549113479E-01  6.569447702841E-01
  6.648281075275E-01  6.728060448178E-01  6.808797173557E-01  6.890502739639E-01
  6.973188772515E-01  7.056867037785E-01  7.141549442238E-01  7.227248035545E-01
  7.313975011972E-01  7.401742712116E-01  7.490563624661E-01  7.580450388157E-01
  7.671415792815E-01  7.763472782329E-01  7.856634455716E-01  7.950914069185E-01
  8.046325038015E-01  8.142880938471E-01  8.240595509733E-01  8.339482655850E-01
  8.439556447720E-01  8.540831125093E-01  8.643321098594E-01  8.747040951777E-01
  8.852005443198E-01  8.958229508517E-01  9.065728262619E-01  9.174517001770E-01
  9.284611205792E-01  9.396026540261E-01  9.508778858744E-01  9.622884205049E-01
  9.738358815510E-01  9.855219121296E-01  9.973481750751E-01  1.009316353176E+00
  1.021428149414E+00  1.033685287207E+00  1.046089510654E+00  1.058642584781E+00
  1.071346295799E+00  1.084202451348E+00  1.097212880765E+00  1.110379435334E+00
  1.123703988558E+00  1.137188436420E+00  1.150834697658E+00  1.164644714029E+00
  1.178620450598E+00  1.192763896005E+00  1.207077062757E+00  1.221561987510E+00
  1.236220731360E+00  1.251055380137E+00  1.266068044698E+00  1.281260861235E+00
  1.296635991569E+00  1.312195623468E+00  1.327941970950E+00  1.343877274601E+00
  1.360003801896E+00  1.376323847519E+00  1.392839733689E+00  1.409553810494E+00
  1.426468456220E+00  1.443586077694E+00  1.460909110627E+00  1.478440019954E+00
  1.496181300194E+00  1.514135475796E+00  1.532305101505E+00  1.550692762723E+00
  1.569301075876E+00  1.588132688787E+00  1.607190281052E+00  1.626476564425E+00
  1.645994283198E+00  1.665746214596E+00  1.685735169171E+00  1.705963991201E+00
  1.726435559096E+00  1.747152785805E+00  1.768118619235E+00  1.789336042665E+00
  1.810808075177E+00  1.832537772080E+00  1.854528225345E+00  1.876782564049E+00
  1.899303954817E+00  1.922095602275E+00  1.945160749502E+00  1.968502678496E+00
  1.992124710638E+00  2.016030207166E+00  2.040222569652E+00  2.064705240488E+00
  2.089481703374E+00  2.114555483814E+00  2.139930149620E+00  2.165609311415E+00
  2.191596623152E+00  2.217895782630E+00  2.244510532022E+00  2.271444658406E+00
  2.298701994307E+00  2.326286418239E+00  2.354201855257E+00  2.382452277520E+00
  2.411041704851E+00  2.439974205309E+00  2.469253895773E+00  2.498884942522E+00
  2.528871561832E+00  2.559218020574E+00  2.589928636821E+00  2.621007780463E+00
  2.652459873828E+00  2.684289392314E+00  2.716500865022E+00  2.749098875402E+00
  2.782088061907E+00  2.815473118650E+00  2.849258796074E+00  2.883449901627E+00
  2.918051300446E+00  2.953067916052E+00  2.988504731044E+00  3.024366787817E+00
  3.060659189271E+00  3.097387099542E+00  3.134555744736E+00  3.172170413673E+00
  3.210236458637E+00  3.248759296141E+00  3.287744407695E+00  3.327197340587E+00
  3.367123708674E+00  3.407529193178E+00  3.448419543496E+00  3.489800578018E+00
  3.531678184954E+00  3.574058323174E+00  3.616947023052E+00  3.660350387329E+00
  3.704274591977E+00  3.748725887080E+00  3.793710597725E+00  3.839235124898E+00
  3.885305946397E+00  3.931929617754E+00  3.979112773167E+00  4.026862126445E+00
  4.075184471962E+00  4.124086685625E+00  4.173575725853E+00  4.223658634563E+00
  4.274342538178E+00  4.325634648636E+00  4.377542264420E+00  4.430072771593E+00
  4.483233644852E+00  4.537032448590E+00  4.591476837973E+00  4.646574560029E+00
  4.702333454749E+00  4.758761456206E+00  4.815866593681E+00  4.873656992805E+00
  4.932140876718E+00  4.991326567239E+00  5.051222486046E+00  5.111837155879E+00
  5.173179201749E+00  5.235257352170E+00  5.298080440396E+00  5.361657405681E+00
  5.425997294549E+00  5.491109262084E+00  5.557002573229E+00  5.623686604107E+00
  5.691170843357E+00  5.759464893477E+00  5.828578472199E+00  5.898521413865E+00
  5.969303670831E+00  6.040935314881E+00  6.113426538660E+00  6.186787657124E+00
  6.261029109009E+00  6.336161458317E+00  6.412195395817E+00  6.489141740567E+00
  6.567011441454E+00  6.645815578751E+00  6.725565365696E+00  6.806272150085E+00
  6.887947415886E+00  6.970602784876E+00  7.054250018295E+00  7.138901018514E+00
  7.224567830737E+00  7.311262644705E+00  7.398997796442E+00  7.487785769999E+00
  7.577639199239E+00  7.668570869630E+00  7.760593720066E+00  7.853720844706E+00
  7.947965494843E+00  8.043341080781E+00  8.139861173750E+00  8.237539507835E+00
  8.336389981929E+00  8.436426661713E+00  8.537663781653E+00  8.640115747033E+00
  8.743797135997E+00  8.848722701629E+00  8.954907374049E+00  9.062366262537E+00
  9.171114657688E+00  9.281168033580E+00  9.392542049983E+00  9.505252554583E+00
  9.619315585238E+00  9.734747372261E+00  9.851564340728E+00  9.969783112817E+00
  1.008942051017E+01  1.021049355629E+01  1.033301947897E+01  1.045701571272E+01
  1.058249990127E+01  1.070948990008E+01  1.083800377888E+01  1.096805982423E+01
  1.109967654212E+01  1.123287266063E+01  1.136766713255E+01  1.150407913815E+01
  1.164212808780E+01  1.178183362486E+01  1.192321562836E+01  1.206629421590E+01
  1.221108974649E+01  1.235762282344E+01  1.250591429733E+01  1.265598526889E+01
  1.280785709212E+01  1.296155137723E+01  1.311708999375E+01  1.327449507368E+01
  1.343378901456E+01  1.359499448274E+01  1.375813441653E+01  1.392323202953E+01
  1.409031081388E+01  1.425939454365E+01  1.443050727817E+01  1.460367336551E+01
  1.477891744590E+01  1.495626445525E+01  1.513573962871E+01  1.531736850425E+01
  1.550117692631E+01  1.568719104942E+01  1.587543734201E+01  1.606594259012E+01
  1.625873390120E+01  1.645383870801E+01  1.665128477251E+01  1.685110018978E+01
  1.705331339206E+01  1.725795315276E+01  1.746504859060E+01  1.767462917368E+01
  1.788672472377E+01  1.810136542045E+01  1.831858180550E+01  1.853840478716E+01
  1.876086564461E+01  1.898599603234E+01  1.921382798473E+01  1.944439392055E+01
  1.967772664760E+01  1.991385936737E+01  2.015282567978E+01  2.039465958793E+01
  2.063939550299E+01  2.088706824902E+01  2.113771306801E+01  2.139136562483E+01
  2.164806201233E+01  2.190783875647E+01  2.217073282155E+01  2.243678161541E+01
  2.270602299480E+01  2.297849527073E+01  2.325423721398E+01  2.353328806055E+01
  2.381568751728E+01  2.410147576748E+01  2.439069347669E+01  2.468338179841E+01
  2.497958237999E+01  2.527933736855E+01  2.558268941698E+01  2.588968168998E+01
  2.620035787026E+01  2.651476216470E+01  2.683293931068E+01  2.715493458241E+01
  2.748079379740E+01  2.781056332297E+01  2.814429008284E+01  2.848202156384E+01
  2.882380582260E+01  2.916969149247E+01  2.951972779038E+01  2.987396452387E+01
  3.023245209815E+01  3.059524152333E+01  3.096238442161E+01  3.133393303467E+01
  3.170994023109E+01  3.209045951386E+01  3.247554502803E+01  3.286525156836E+01
  3.325963458718E+01  3.365875020223E+01  3.406265520466E+01  3.447140706711E+01
  3.488506395192E+01  3.530368471934E+01  3.572732893597E+01  3.615605688320E+01
  3.658992956580E+01  3.702900872059E+01  3.747335682524E+01  3.792303710714E+01
  3.837811355243E+01  3.883865091506E+01  3.930471472604E+01  3.977637130275E+01
  4.025368775838E+01  4.073673201148E+01  4.122557279562E+01  4.172027966917E+01
  4.222092302520E+01  4.272757410150E+01  4.324030499072E+01  4.375918865061E+01
  4.428429891442E+01
</grid-data>
</grid>
<valence-charge total-charge="9" is-unscreening-charge="yes"
 rescaled-to-z-pseudo="no">
<radfunc>
<data npts="457">
  1.677348302094E+01  1.677981784323E+01  1.679874707192E+01  1.683030212641E+01
  1.687412173332E+01  1.693164657016E+01  1.700480771836E+01  1.708837240299E+01
  1.718206286889E+01  1.729096126082E+01  1.741324467611E+01  1.754560141138E+01
  1.770478850208E+01  1.787013998414E+01  1.806401105348E+01  1.825634709194E+01
  1.847623943847E+01  1.868310692262E+01  1.891384714726E+01  1.917087684535E+01
  1.945676425246E+01  1.970806305473E+01  1.998098970935E+01  2.027700527280E+01
  2.059758136555E+01  2.094417661279E+01  2.131820676424E+01  2.161754121708E+01
  2.193358096805E+01  2.226679277175E+01  2.261757593459E+01  2.298624532629E+01
  2.337301208267E+01  2.377796182782E+01  2.420103026073E+01  2.464197597844E+01
  2.510035044753E+01  2.557546509112E+01  2.590104454194E+01  2.623328024087E+01
  2.657174313680E+01  2.691593126927E+01  2.726526406698E+01  2.761907651770E+01
  2.797661325505E+01  2.833702261716E+01  2.869935074296E+01  2.906253578362E+01
  2.942540231973E+01  2.978665608827E+01  3.014487913855E+01  3.049852555165E+01
  3.084591787425E+01  3.118524443417E+01  3.151455772159E+01  3.183177403625E+01
  3.213467461613E+01  3.242090847730E+01  3.268799720592E+01  3.293334195232E+01
  3.315423288155E+01  3.334786133418E+01  3.351133494422E+01  3.364169594638E+01
  3.373594288120E+01  3.379105587219E+01  3.380402560290E+01  3.379377720271E+01
  3.377188606206E+01  3.373799418584E+01  3.369175105076E+01  3.363281494428E+01
  3.356085435551E+01  3.347554941578E+01  3.337659338523E+01  3.326369418174E+01
  3.313657594761E+01  3.299498064897E+01  3.283866970215E+01  3.266742562053E+01
  3.248105367494E+01  3.227938355966E+01  3.206227105567E+01  3.182959968191E+01
  3.158128232476E+01  3.131726283519E+01  3.103751758238E+01  3.074205695215E+01
  3.043092677779E+01  3.010420969037E+01  2.976202637541E+01  2.940453672210E+01
  2.903194085119E+01  2.864448000740E+01  2.824243730222E+01  2.782613829286E+01
  2.739595138358E+01  2.695228803574E+01  2.649560277352E+01  2.602639297306E+01
  2.554519842333E+01  2.505260064864E+01  2.454922198332E+01  2.403572439108E+01
  2.351280802300E+01  2.298120950999E+01  2.244169998765E+01  2.189508285370E+01
  2.134219126061E+01  2.078388534863E+01  2.022104922716E+01  1.965458771521E+01
  1.908542285472E+01  1.851449021353E+01  1.794273499749E+01  1.737110799475E+01
  1.680056137755E+01  1.623204439015E+01  1.566649895385E+01  1.510485522246E+01
  1.454802712392E+01  1.399690792536E+01  1.345236586021E+01  1.291523985721E+01
  1.238633541144E+01  1.186642063741E+01  1.135622254377E+01  1.085642356800E+01
  1.036765840745E+01  9.890511180952E+00  9.425512951983E+00  8.973139640995E+00
  8.533810350185E+00  8.107886119484E+00  7.695669127436E+00  7.297402345219E+00
  6.913269646378E+00  6.543396368994E+00  6.187850321111E+00  5.846643214393E+00
  5.519732505349E+00  5.207023618114E+00  4.908372517861E+00  4.623588599571E+00
  4.352437853166E+00  4.094646263024E+00  3.849903397750E+00  3.617866144769E+00
  3.398162543871E+00  3.190395674331E+00  2.994147551555E+00  2.808982991315E+00
  2.634453402542E+00  2.470100473113E+00  2.315459717053E+00  2.170064014394E+00
  2.033447586397E+00  1.905150110160E+00  1.784719229511E+00  1.671712833225E+00
  1.565701080356E+00  1.466268181076E+00  1.373013933981E+00  1.285555025364E+00
  1.203526097008E+00  1.126580589862E+00  1.054391371303E+00  9.866511534629E-01
  9.230727096474E-01  8.633888952141E-01  8.073524786234E-01  7.547357879204E-01
  7.053301777662E-01  6.589453225127E-01  6.154083417976E-01  5.745627668189E-01
  5.362667222767E-01  5.003885651888E-01  4.668013912821E-01  4.353830238591E-01
  4.060159198059E-01  3.785871157463E-01  3.529881662967E-01  3.291150750540E-01
  3.068682189346E-01  2.861522664722E-01  2.668760906587E-01  2.489526769026E-01
  2.322990266565E-01  2.168360572493E-01  2.024884984388E-01  1.891847861798E-01
  1.768569540849E-01  1.654405230322E-01  1.548743893544E-01  1.451007120237E-01
  1.360647992253E-01  1.277149946892E-01  1.200025641332E-01  1.128815821446E-01
  1.063088198100E-01  1.002436333801E-01  9.464785423745E-02  8.948568041219E-02
  8.472356987343E-02  8.033013580145E-02  7.627604402776E-02  7.253391281001E-02
  6.907821508986E-02  6.588518336330E-02  6.293271727471E-02  6.020029402820E-02
  5.766888169274E-02  5.532085546092E-02  5.313991690532E-02  5.111101626146E-02
  4.922027775182E-02  4.745492795191E-02  4.580322718678E-02  4.425440393481E-02
  4.279859220463E-02  4.142677184158E-02  4.013071171123E-02  3.890291569987E-02
  3.773657146494E-02  3.662550186290E-02  3.556411897696E-02  3.454738066310E-02
  3.357074952992E-02  3.263015426522E-02  3.172195322090E-02  3.084290016644E-02
  2.999011212131E-02  2.916103917640E-02  2.835343621562E-02  2.756533644967E-02
  2.679502667545E-02  2.604102417651E-02  2.530205518188E-02  2.457703480272E-02
  2.386504836898E-02  2.316533409058E-02  2.247726697031E-02  2.180034389856E-02
  2.113416986251E-02  2.047844520549E-02  1.983295387479E-02  1.919755259921E-02
  1.857216094007E-02  1.795675216248E-02  1.735134487608E-02  1.675599539693E-02
  1.617079078509E-02  1.559584251447E-02  1.503128073401E-02  1.447724908152E-02
  1.393390001365E-02  1.340139061729E-02  1.287987887002E-02  1.236952031882E-02
  1.187046514797E-02  1.138285560912E-02  1.090682378752E-02  1.044248968050E-02
  9.989959565220E-03  9.549324634228E-03  9.120659878761E-03  8.704023200572E-03
  8.299454734445E-03  7.906976364446E-03  7.526591417969E-03  7.158284522551E-03
  6.802021611236E-03  6.457750063108E-03  6.125398966315E-03  5.804879491621E-03
  5.496085365180E-03  5.198893429806E-03  4.913164284619E-03  4.638742993476E-03
  4.375459852968E-03  4.123131212081E-03  3.881560333910E-03  3.650538293279E-03
  3.429844902158E-03  3.219249656172E-03  3.018512695696E-03  2.827385775426E-03
  2.645613236656E-03  2.472932976864E-03  2.309077411552E-03  2.153774423622E-03
  2.006748295921E-03  1.867720622889E-03  1.736411197614E-03  1.612538870890E-03
  1.495822379207E-03  1.385981138913E-03  1.282736004126E-03  1.185809986254E-03
  1.094928933302E-03  1.009822167463E-03  9.302230797521E-04  8.558696807686E-04
  7.865051069345E-04  7.218780818365E-04  6.617433325696E-04  6.058619612318E-04
  5.540017719682E-04  5.059375541910E-04  4.614513228249E-04  4.203325166309E-04
  3.823781558511E-04  3.473929605923E-04  3.151894315223E-04  2.855878945949E-04
  2.584165116415E-04  2.335112587721E-04  2.107158746159E-04  1.898817805022E-04
  1.708679747308E-04  1.535409031179E-04  1.377743080187E-04  1.234490580277E-04
  1.104529605454E-04  9.868055936486E-05  8.803291939278E-05  7.841740055790E-05
  6.974742289350E-05  6.194222470150E-05  5.492661561365E-05  4.863072627237E-05
  4.298975624901E-05  3.794372170763E-05  3.343720420986E-05  2.941910194127E-05
  2.584238452171E-05  2.266385244462E-05  1.984390207313E-05  1.734629700548E-05
  1.513794650971E-05  1.318869161808E-05  1.147109936742E-05  9.960265570878E-06
  8.633626412892E-06  7.470779070003E-06  6.453311478306E-06  5.564641292471E-06
  4.789864012255E-06  4.115610190243E-06  3.529911579016E-06  3.022076027165E-06
  2.582570891240E-06  2.202914694761E-06  1.875576735406E-06  1.593884317300E-06
  1.351937266412E-06  1.144529373279E-06  9.670763979616E-07  8.155502671516E-07
  6.864190920979E-07  5.765926381403E-07  4.833728817850E-07  4.044092989351E-07
  3.376585377946E-07  2.813481416889E-07  2.339440002684E-07  1.941212219552E-07
  1.607381357589E-07  1.328131464669E-07  1.095041834520E-07  9.009049972875E-08
  7.395659423279E-08  6.057804643397E-08  4.950906817699E-08  4.037159296276E-08
  3.284573763612E-08  2.666148555886E-08  2.159145376191E-08  1.744461924627E-08
  1.406089151181E-08  1.130642952424E-08  9.069611680559E-09  7.257576910821E-09
  5.793263875448E-09  4.612883304955E-09  3.663765912402E-09  2.902535020055E-09
  2.293559117044E-09  1.807645042059E-09  1.420937403664E-09  1.113994250505E-09
  8.710129241296E-10  6.791835074221E-10  5.281503597193E-10  4.095649419083E-10
  3.167155160973E-10  2.442213875486E-10  1.877811723212E-10  1.439661511535E-10
  1.100511350460E-10  8.387644514917E-11  6.373562119189E-11  4.828433901910E-11
  3.646675711267E-11  2.745614066356E-11  2.060714452024E-11  1.541758621543E-11
  1.149791882804E-11  8.546930856085E-12  6.332465491470E-12  4.676172499524E-12
  3.441489094620E-12  2.524197634921E-12  1.845032690039E-12  1.343912401448E-12
  9.754527617875E-13  7.054916365225E-13  5.084047086682E-13  3.650402952699E-13
  2.611360533354E-13  1.861095438458E-13  1.321377718268E-13  9.345925997689E-14
  6.584684456930E-14  4.621094656762E-14  3.230217511815E-14  2.248925967330E-14
  1.559388272551E-14  1.076832224278E-14  7.405172778376E-15  5.071006337550E-15
  3.457825542913E-15  2.347685197156E-15  1.587018980685E-15  1.068088394761E-15
  7.156359484332E-16  4.773245315484E-16  3.169191694501E-16  2.094462624387E-16
  1.377723241488E-16  9.019702994102E-17  5.876769967885E-17  3.810450874480E-17
  2.458555272610E-17  1.578424904204E-17  1.008282669323E-17  6.408094140569E-18
  4.051698459929E-18  2.548473489893E-18  1.594522562977E-18  9.923415650015E-19
  6.142481162713E-19  0.000000000000E+00  0.000000000000E+00  0.000000000000E+00
  0.000000000000E+00
</data>
</radfunc>
</valence-charge>
<semilocal-potentials set="scalar_relativistic">
<slps n="2" l="s" rc="1.20707706276" eref="-2.07018698754">
<radfunc>
<data npts="256">
 -1.672280142519E+01 -1.672254304881E+01 -1.672177085500E+01 -1.672048318642E+01
 -1.671869415703E+01 -1.671634399931E+01 -1.671335236706E+01 -1.670993157740E+01
 -1.670609137356E+01 -1.670162106753E+01 -1.669659229715E+01 -1.669113806930E+01
 -1.668456203858E+01 -1.667771172050E+01 -1.666965297869E+01 -1.666162774722E+01
 -1.665241356053E+01 -1.664370479383E+01 -1.663394212003E+01 -1.662300274259E+01
 -1.661075026741E+01 -1.659990160340E+01 -1.658803069702E+01 -1.657504479758E+01
 -1.656084290307E+01 -1.654531493052E+01 -1.652834076320E+01 -1.651458257049E+01
 -1.649987743281E+01 -1.648416119848E+01 -1.646736506455E+01 -1.644941514469E+01
 -1.643023198553E+01 -1.640973002564E+01 -1.638781699180E+01 -1.636439322686E+01
 -1.633935094394E+01 -1.631257340219E+01 -1.629369559080E+01 -1.627395036095E+01
 -1.625329528224E+01 -1.623168549402E+01 -1.620907355006E+01 -1.618540925593E+01
 -1.616063949944E+01 -1.613470807470E+01 -1.610755550035E+01 -1.607911883301E+01
 -1.604933147693E+01 -1.601812299113E+01 -1.598541889581E+01 -1.595114047978E+01
 -1.591520461112E+01 -1.587752355376E+01 -1.583800479278E+01 -1.579655087182E+01
 -1.575305924626E+01 -1.570742215629E+01 -1.565952652446E+01 -1.560925388257E+01
 -1.555648033311E+01 -1.550107655120E+01 -1.544290783255E+01 -1.538183419392E+01
 -1.531771053221E+01 -1.525038684850E+01 -1.517970854312E+01 -1.514306192680E+01
 -1.510551678777E+01 -1.506705268629E+01 -1.502764897985E+01 -1.498728484216E+01
 -1.494593928366E+01 -1.490359117337E+01 -1.486021926230E+01 -1.481580220831E+01
 -1.477031860240E+01 -1.472374699654E+01 -1.467606593286E+01 -1.462725397431E+01
 -1.457728973668E+01 -1.452615192200E+01 -1.447381935313E+01 -1.442027100971E+01
 -1.436548606519E+01 -1.430944392491E+01 -1.425212426527E+01 -1.419350707372E+01
 -1.413357268960E+01 -1.407230184562E+01 -1.400967570999E+01 -1.394567592898E+01
 -1.388028466988E+01 -1.381348466422E+01 -1.374525925110E+01 -1.367559242069E+01
 -1.360446885765E+01 -1.353187398458E+01 -1.345779400532E+01 -1.338221594827E+01
 -1.330512770965E+01 -1.322651809686E+01 -1.314637687213E+01 -1.306469479658E+01
 -1.298146367509E+01 -1.289667640239E+01 -1.281032701075E+01 -1.272241072001E+01
 -1.263292399068E+01 -1.254186458092E+01 -1.244923160854E+01 -1.235502561925E+01
 -1.225924866254E+01 -1.216190437683E+01 -1.206299808581E+01 -1.196253690794E+01
 -1.186052988155E+01 -1.175698810814E+01 -1.165192491659E+01 -1.154535605153E+01
 -1.143729988929E+01 -1.132777768484E+01 -1.121681385384E+01 -1.110443629367E+01
 -1.099067674777E+01 -1.087557121766E+01 -1.075916042702E+01 -1.064149034218E+01
 -1.052261275336E+01 -1.040258592074E+01 -1.028147528871E+01 -1.015935427181E+01
 -1.003630511429E+01 -9.912419824960E+00 -9.787801187305E+00 -9.662563843632E+00
 -9.536835450125E+00 -9.410757897595E+00 -9.284488590333E+00 -9.158201772652E+00
 -9.032089889704E+00 -8.906364965705E+00 -8.781259979107E+00 -8.657030210436E+00
 -8.533954534581E+00 -8.412336625483E+00 -8.292506037534E+00 -8.174819124780E+00
 -8.059659756553E+00 -7.947439786655E+00 -7.838599233124E+00 -7.733606127266E+00
 -7.632955994483E+00 -7.537170935949E+00 -7.446798289734E+00 -7.359831006474E+00
 -7.273714176753E+00 -7.188497923971E+00 -7.104175480145E+00 -7.020740902476E+00
 -6.938189051706E+00 -6.856515554651E+00 -6.775716749984E+00 -6.695789616323E+00
 -6.616731681922E+00 -6.538540915528E+00 -6.461215598272E+00 -6.384754176849E+00
 -6.309155098642E+00 -6.234416629978E+00 -6.160536659231E+00 -6.087512487156E+00
 -6.015340607578E+00 -5.944016482399E+00 -5.873534315832E+00 -5.803886833877E+00
 -5.735065221162E+00 -5.667059696327E+00 -5.599860591217E+00 -5.533458341930E+00
 -5.467843498026E+00 -5.403006721187E+00 -5.338938783883E+00 -5.275630568065E+00
 -5.213073063860E+00 -5.151257368298E+00 -5.090174684040E+00 -5.029816318130E+00
 -4.970173680755E+00 -4.911238284032E+00 -4.853001740795E+00 -4.795455763403E+00
 -4.738592162567E+00 -4.682402846182E+00 -4.626879818176E+00 -4.572015177373E+00
 -4.517801116370E+00 -4.464229920422E+00 -4.411293966344E+00 -4.358985721422E+00
 -4.307297742336E+00 -4.256222674096E+00 -4.205753248990E+00 -4.155882285537E+00
 -4.106602687461E+00 -4.057907442669E+00 -4.009789622242E+00 -3.962242379440E+00
 -3.915258948713E+00 -3.868832644733E+00 -3.822956861430E+00 -3.777625071041E+00
 -3.732830823179E+00 -3.688567743902E+00 -3.644829534807E+00 -3.601609972127E+00
 -3.558902905847E+00 -3.516702258827E+00 -3.475002025938E+00 -3.433796273214E+00
 -3.393079137006E+00 -3.352844823157E+00 -3.313087606182E+00 -3.273801828456E+00
 -3.234981899417E+00 -3.196622294774E+00 -3.158717555731E+00 -3.121262288209E+00
 -3.084251162088E+00 -3.047678910450E+00 -3.011540328833E+00 -2.975830274497E+00
 -2.940543665692E+00 -2.905675480936E+00 -2.871220758305E+00 -2.837174594727E+00
 -2.803532145283E+00 -2.770288622524E+00 -2.737439295783E+00 -2.704979490505E+00
 -2.672904587583E+00 -2.641210022697E+00 -2.609891285669E+00 -2.578943919814E+00
 -2.548363521310E+00 -2.518145738568E+00 -2.488286271614E+00 -2.458780871475E+00
 -2.429625339573E+00 -2.400815527127E+00 -2.372347334564E+00 -2.344216710932E+00
 -2.316419653323E+00 -2.288952206305E+00 -2.261810461355E+00 -2.234990556306E+00
</data>
</radfunc>
</slps>
<slps n="2" l="p" rc="1.55069276272" eref="-1.05937317528">
<radfunc>
<data npts="256">
 -2.331916391253E+01 -2.331866940023E+01 -2.331719127072E+01 -2.331472570524E+01
 -2.331129867528E+01 -2.330679415161E+01 -2.330105586708E+01 -2.329448862342E+01
 -2.328710890554E+01 -2.327850873346E+01 -2.326882200244E+01 -2.325830139599E+01
 -2.324559747411E+01 -2.323234146956E+01 -2.321671871502E+01 -2.320113123526E+01
 -2.318319891713E+01 -2.316621634085E+01 -2.314714067252E+01 -2.312571981171E+01
 -2.310167227754E+01 -2.308033308627E+01 -2.305693491465E+01 -2.303128393056E+01
 -2.300316845477E+01 -2.297235726573E+01 -2.293859770992E+01 -2.291117797686E+01
 -2.288181898737E+01 -2.285038595645E+01 -2.281673460220E+01 -2.278071040050E+01
 -2.274214776881E+01 -2.270086917211E+01 -2.265668414369E+01 -2.260938821329E+01
 -2.255876173515E+01 -2.250456860824E+01 -2.246633375707E+01 -2.242632129949E+01
 -2.238444723864E+01 -2.234062331612E+01 -2.229475677533E+01 -2.224675011294E+01
 -2.219650081851E+01 -2.214390110234E+01 -2.208883761155E+01 -2.203119113497E+01
 -2.197083629717E+01 -2.190764124243E+01 -2.184146730952E+01 -2.177216869848E+01
 -2.169959213096E+01 -2.162357650576E+01 -2.154395255198E+01 -2.146054248211E+01
 -2.137315964828E+01 -2.128160820520E+01 -2.118568278387E+01 -2.108516818087E+01
 -2.097983906866E+01 -2.086945973323E+01 -2.075378384607E+01 -2.063255427882E+01
 -2.050550296948E+01 -2.037235085101E+01 -2.023280785385E+01 -2.016054614069E+01
 -2.008657299615E+01 -2.001084912408E+01 -1.993333457692E+01 -1.985398876857E+01
 -1.977277048975E+01 -1.968963792582E+01 -1.960454867739E+01 -1.951745978386E+01
 -1.942832775027E+01 -1.933710857745E+01 -1.924375779607E+01 -1.914823050460E+01
 -1.905048141166E+01 -1.895046488309E+01 -1.884813499405E+01 -1.874344558666E+01
 -1.863635033354E+01 -1.852680280780E+01 -1.841475655997E+01 -1.830016520251E+01
 -1.818298250240E+01 -1.806316248271E+01 -1.794065953369E+01 -1.781542853433E+01
 -1.768742498528E+01 -1.755660515395E+01 -1.742292623314E+01 -1.728634651399E+01
 -1.714682557483E+01 -1.700432448704E+01 -1.685880603946E+01 -1.671023498297E+01
 -1.655857829685E+01 -1.640380547871E+01 -1.624588886004E+01 -1.608480394922E+01
 -1.592052980441E+01 -1.575304943831E+01 -1.558235025736E+01 -1.540842453773E+01
 -1.523126994068E+01 -1.505089006961E+01 -1.486729507169E+01 -1.468050228612E+01
 -1.449053694162E+01 -1.429743290521E+01 -1.410123348405E+01 -1.390199228189E+01
 -1.369977411096E+01 -1.349465595941E+01 -1.328672801386E+01 -1.307609473500E+01
 -1.286287598331E+01 -1.264720819015E+01 -1.242924556745E+01 -1.220916134724E+01
 -1.198714903931E+01 -1.176342369245E+01 -1.153822314115E+01 -1.131180921577E+01
 -1.108446888971E+01 -1.085651533261E+01 -1.062828883313E+01 -1.040015754970E+01
 -1.017251804178E+01 -9.945795528613E+00 -9.720443816982E+00 -9.496944834201E+00
 -9.275807698488E+00 -9.057567255512E+00 -8.842782008373E+00 -8.632031368723E+00
 -8.425912159900E+00 -8.225034309229E+00 -8.030015676703E+00 -7.841475981585E+00
 -7.660029807328E+00 -7.486278689007E+00 -7.320802315936E+00 -7.164148915198E+00
 -7.016824918545E+00 -6.879284054551E+00 -6.751916048364E+00 -6.635035150980E+00
 -6.528868756248E+00 -6.433546394206E+00 -6.349089411162E+00 -6.275401643680E+00
 -6.212261357687E+00 -6.159314761632E+00 -6.116071521611E+00 -6.081902393918E+00
 -6.056039138997E+00 -6.037576810141E+00 -6.025478438962E+00 -6.018582069362E+00
 -6.015610031056E+00 -6.015180299606E+00 -6.015819770163E+00 -6.015979283451E+00
 -6.014050291218E+00 -6.008383138860E+00 -5.997307078308E+00 -5.979152305143E+00
 -5.952274538481E+00 -5.915082925121E+00 -5.866072340967E+00 -5.803861466785E+00
 -5.735065221162E+00 -5.667059696327E+00 -5.599860591217E+00 -5.533458341930E+00
 -5.467843498026E+00 -5.403006721187E+00 -5.338938783883E+00 -5.275630568065E+00
 -5.213073063860E+00 -5.151257368298E+00 -5.090174684040E+00 -5.029816318130E+00
 -4.970173680755E+00 -4.911238284032E+00 -4.853001740795E+00 -4.795455763403E+00
 -4.738592162567E+00 -4.682402846182E+00 -4.626879818176E+00 -4.572015177373E+00
 -4.517801116370E+00 -4.464229920422E+00 -4.411293966344E+00 -4.358985721422E+00