<?xml version="1.0" encoding="UTF-8" ?>
<psml version="1.1" energy_unit="hartree" length_unit="bohr"
 uuid="f90be210-23d2-11e8-6c5f-d922ff7fdd2b"
 xmlns="http://esl.cecam.org/PSML/ns/1.1">
<provenance creator="ONCVPSP-3.3.0+psml-3.3.0-73 (scalar-relativistic)"
 date="2018-03-09">
<annotation action="semilocal-pseudopotential-generation"
 action-cont="projectors-generation" />
<input-file name="oncvpsp-input">
<![CDATA[# atsym z nc nv iexc psfile
Nb 41 6 4 -001012 upf
# n l f
1 0 2.0
2 0 2.0
2 1 6.0
3 0 2.0
3 1 6.0
3 2 10.0
4 0 2.0
4 1 6.0
4 2 4.0
5 0 1.0
# lmax
2
# l rc ep ncon nbas qcut
0 1.5 0.0 4 7 7.8
1 1.4 0.0 4 7 9.0
2 1.4 0.0 4 7 9.2
# lloc lpopt rc5 dvloc0
4 5 1.25 0.0
# l nproj debl
0 2 1.0
1 2 1.8
2 2 1.5
# icmod fcfact rcfact
3 5.0 1.5
# epsh1 epsh2 depsh
-12.0 12.0 0.02
# rlmax drl
6.0 0.01
 0
]]>
</input-file>
</provenance>
<pseudo-atom-spec atomic-label="Nb" atomic-number="41" z-pseudo="13"
 flavor="Hamann&apos;s oncvpsp" relativity="scalar" spin-dft="no"
 core-corrections="yes">
<annotation pseudo-energy="-57.1933970996" />
<exchange-correlation>
<annotation oncvpsp-xc-code="-1012" oncvpsp-xc-type="libxc-interface" />
<libxc-info number-of-functionals="2">
<functional name="Slater exchange (LDA)" type="exchange" id="1" />
<functional name="Perdew &amp; Wang (LDA)" type="correlation" id="12" />
</libxc-info>
</exchange-correlation>
<valence-configuration total-valence-charge="13">
<shell n="4" l="s" occupation="2" />
<shell n="4" l="p" occupation="6" />
<shell n="4" l="d" occupation="4" />
<shell n="5" l="s" occupation="1" />
</valence-configuration>
</pseudo-atom-spec>
<grid npts="457">
<annotation type="sampled from oncvpsp log grid"
 recipe="r(i:1..N) = r1*exp(a*(i-1)) + r=0; resampled"
 recipe-cont="r1: scale; a: step" scale="0.121951219512E-04"
 step="0.119285708653E-01" delta="0.500000000000E-02" rmax="44.1280744696" />
<grid-data>
  0.000000000000E+00  5.039007004218E-03  1.006502104386E-02  1.509913653849E-02
  2.010408966061E-02  2.521820379404E-02  3.052125238152E-02  3.564092875491E-02
  4.112587609116E-02  4.633618645073E-02  5.158754969678E-02  5.675302309559E-02
  6.243571655217E-02  6.787294410245E-02  7.290876853877E-02  7.831822532726E-02
  8.412903607266E-02  8.929938654214E-02  9.478749322547E-02  1.006128845883E-01
  1.067962892646E-01  1.120155235337E-01  1.174898266497E-01  1.232316640651E-01
  1.292541104306E-01  1.355708793673E-01  1.421963546938E-01  1.473770980033E-01
  1.527465951054E-01  1.583117230044E-01  1.640796092595E-01  1.700576411136E-01
  1.762534749543E-01  1.826750461198E-01  1.893305790625E-01  1.962285978822E-01
  2.033779372432E-01  2.107877536900E-01  2.158770132150E-01  2.210891478221E-01
  2.264271242071E-01  2.318939806940E-01  2.374928289639E-01  2.432268558264E-01
  2.490993250334E-01  2.551135791370E-01  2.612730413917E-01  2.675812177031E-01
  2.740416986233E-01  2.806581613949E-01  2.874343720436E-01  2.943741875222E-01
  3.014815579057E-01  3.087605286398E-01  3.162152428433E-01  3.238499436665E-01
  3.316689767064E-01  3.396767924800E-01  3.478779489576E-01  3.562771141573E-01
  3.648790688015E-01  3.736887090386E-01  3.827110492296E-01  3.919512248022E-01
  4.014144951739E-01  4.111062467454E-01  4.210319959668E-01  4.260843799184E-01
  4.311973924774E-01  4.363717611871E-01  4.416082223214E-01  4.469075209892E-01
  4.522704112411E-01  4.576976561760E-01  4.631900280501E-01  4.687483083867E-01
  4.743732880873E-01  4.800657675444E-01  4.858265567549E-01  4.916564754360E-01
  4.975563531412E-01  5.035270293789E-01  5.095693537315E-01  5.156841859762E-01
  5.218723962079E-01  5.281348649624E-01  5.344724833420E-01  5.408861531421E-01
  5.473767869798E-01  5.539453084236E-01  5.605926521246E-01  5.673197639501E-01
  5.741276011175E-01  5.810171323309E-01  5.879893379189E-01  5.950452099739E-01
  6.021857524936E-01  6.094119815236E-01  6.167249253018E-01  6.241256244055E-01
  6.316151318983E-01  6.391945134811E-01  6.468648476429E-01  6.546272258146E-01
  6.624827525244E-01  6.704325455547E-01  6.784777361013E-01  6.866194689345E-01
  6.948589025618E-01  7.031972093925E-01  7.116355759052E-01  7.201752028161E-01
  7.288173052499E-01  7.375631129129E-01  7.464138702678E-01  7.553708367110E-01
  7.644352867516E-01  7.736085101926E-01  7.828918123149E-01  7.922865140627E-01
  8.017939522314E-01  8.114154796582E-01  8.211524654141E-01  8.310062949991E-01
  8.409783705390E-01  8.510701109855E-01  8.612829523173E-01  8.716183477452E-01
  8.820777679181E-01  8.926627011331E-01  9.033746535467E-01  9.142151493893E-01
  9.251857311819E-01  9.362879599561E-01  9.475234154756E-01  9.588936964613E-01
  9.704004208188E-01  9.820452258687E-01  9.938297685791E-01  1.005755725802E+00
  1.017824794512E+00  1.030038692046E+00  1.042399156350E+00  1.054907946227E+00
  1.067566841581E+00  1.080377643680E+00  1.093342175404E+00  1.106462281509E+00
  1.119739828887E+00  1.133176706834E+00  1.146774827316E+00  1.160536125244E+00
  1.174462558747E+00  1.188556109452E+00  1.202818782765E+00  1.217252608158E+00
  1.231859639456E+00  1.246641955130E+00  1.261601658591E+00  1.276740878494E+00
  1.292061769036E+00  1.307566510265E+00  1.323257308388E+00  1.339136396089E+00
  1.355206032842E+00  1.371468505236E+00  1.387926127299E+00  1.404581240826E+00
  1.421436215716E+00  1.438493450305E+00  1.455755371708E+00  1.473224436169E+00
  1.490903129403E+00  1.508793966956E+00  1.526899494559E+00  1.545222288494E+00
  1.563764955956E+00  1.582530135427E+00  1.601520497052E+00  1.620738743017E+00
  1.640187607933E+00  1.659869859228E+00  1.679788297539E+00  1.699945757110E+00
  1.720345106195E+00  1.740989247469E+00  1.761881118439E+00  1.783023691860E+00
  1.804419976162E+00  1.826073015876E+00  1.847985892067E+00  1.870161722772E+00
  1.892603663445E+00  1.915314907406E+00  1.938298686295E+00  1.961558270531E+00
  1.985096969777E+00  2.008918133414E+00  2.033025151015E+00  2.057421452828E+00
  2.082110510262E+00  2.107095836385E+00  2.132380986421E+00  2.157969558258E+00
  2.183865192957E+00  2.210071575273E+00  2.236592434176E+00  2.263431543386E+00
  2.290592721907E+00  2.318079834570E+00  2.345896792585E+00  2.374047554096E+00
  2.402536124745E+00  2.431366558242E+00  2.460542956941E+00  2.490069472424E+00
  2.519950306093E+00  2.550189709766E+00  2.580791986283E+00  2.611761490119E+00
  2.643102628000E+00  2.674819859536E+00  2.706917697851E+00  2.739400710225E+00
  2.772273518748E+00  2.805540800972E+00  2.839207290584E+00  2.873277778071E+00
  2.907757111408E+00  2.942650196745E+00  2.977961999106E+00  3.013697543095E+00
  3.049861913612E+00  3.086460256576E+00  3.123497779655E+00  3.160979753010E+00
  3.198911510046E+00  3.237298448167E+00  3.276146029545E+00  3.315459781900E+00
  3.355245299282E+00  3.395508242874E+00  3.436254341788E+00  3.477489393890E+00
  3.519219266616E+00  3.561449897816E+00  3.604187296590E+00  3.647437544149E+00
  3.691206794678E+00  3.735501276215E+00  3.780327291529E+00  3.825691219028E+00
  3.871599513656E+00  3.918058707820E+00  3.965075412314E+00  4.012656317261E+00
  4.060808193068E+00  4.109537891385E+00  4.158852346082E+00  4.208758574235E+00
  4.259263677126E+00  4.310374841251E+00  4.362099339346E+00  4.414444531418E+00
  4.467417865795E+00  4.521026880185E+00  4.575279202747E+00  4.630182553180E+00
  4.685744743818E+00  4.741973680744E+00  4.798877364913E+00  4.856463893292E+00
  4.914741460011E+00  4.973718357532E+00  5.033402977822E+00  5.093803813556E+00
  5.154929459319E+00  5.216788612830E+00  5.279390076184E+00  5.342742757099E+00
  5.406855670184E+00  5.471737938226E+00  5.537398793485E+00  5.603847579006E+00
  5.671093749955E+00  5.739146874954E+00  5.808016637453E+00  5.877712837103E+00
  5.948245391148E+00  6.019624335842E+00  6.091859827872E+00  6.164962145806E+00
  6.238941691556E+00  6.313808991855E+00  6.389574699757E+00  6.466249596154E+00
  6.543844591308E+00  6.622370726404E+00  6.701839175121E+00  6.782261245222E+00
  6.863648380165E+00  6.946012160727E+00  7.029364306655E+00  7.113716678335E+00
  7.199081278475E+00  7.285470253817E+00  7.372895896863E+00  7.461370647625E+00
  7.550907095397E+00  7.641517980541E+00  7.733216196308E+00  7.826014790664E+00
  7.919926968152E+00  8.014966091769E+00  8.111145684871E+00  8.208479433089E+00
  8.306981186286E+00  8.406664960521E+00  8.507544940048E+00  8.609635479328E+00
  8.712951105080E+00  8.817506518341E+00  8.923316596561E+00  9.030396395720E+00
  9.138761152469E+00  9.248426286298E+00  9.359407401734E+00  9.471720290555E+00
  9.585380934041E+00  9.700405505250E+00  9.816810371313E+00  9.934612095769E+00
  1.005382744092E+01  1.017447337021E+01  1.029656705065E+01  1.042012585526E+01
  1.054516736552E+01  1.067170937391E+01  1.079976988640E+01  1.092936712503E+01
  1.106051953053E+01  1.119324576490E+01  1.132756471408E+01  1.146349549065E+01
  1.160105743653E+01  1.174027012577E+01  1.188115336728E+01  1.202372720769E+01
  1.216801193418E+01  1.231402807739E+01  1.246179641432E+01  1.261133797129E+01
  1.276267402695E+01  1.291582611527E+01  1.307081602865E+01  1.322766582100E+01
  1.338639781085E+01  1.354703458458E+01  1.370959899960E+01  1.387411418759E+01
  1.404060355784E+01  1.420909080054E+01  1.437959989014E+01  1.455215508882E+01
  1.472678094989E+01  1.490350232129E+01  1.508234434914E+01  1.526333248133E+01
  1.544649247111E+01  1.563185038076E+01  1.581943258533E+01  1.600926577636E+01
  1.620137696567E+01  1.639579348926E+01  1.659254301113E+01  1.679165352727E+01
  1.699315336959E+01  1.719707121003E+01  1.740343606455E+01  1.761227729732E+01
  1.782362462489E+01  1.803750812039E+01  1.825395821783E+01  1.847300571645E+01
  1.869468178505E+01  1.891901796647E+01  1.914604618206E+01  1.937579873625E+01
  1.960830832108E+01  1.984360802094E+01  2.008173131719E+01  2.032271209299E+01
  2.056658463811E+01  2.081338365377E+01  2.106314425761E+01  2.131590198870E+01
  2.157169281257E+01  2.183055312632E+01  2.209251976383E+01  2.235763000100E+01
  2.262592156101E+01  2.289743261974E+01  2.317220181118E+01  2.345026823292E+01
  2.373167145171E+01  2.401645150913E+01  2.430464892724E+01  2.459630471437E+01
  2.489146037094E+01  2.519015789539E+01  2.549243979014E+01  2.579834906762E+01
  2.610792925643E+01  2.642122440751E+01  2.673827910040E+01  2.705913844960E+01
  2.738384811100E+01  2.771245428833E+01  2.804500373979E+01  2.838154378467E+01
  2.872212231008E+01  2.906678777780E+01  2.941558923114E+01  2.976857630191E+01
  3.012579921753E+01  3.048730880814E+01  3.085315651384E+01  3.122339439201E+01
  3.159807512471E+01  3.197725202621E+01  3.236097905052E+01  3.274931079913E+01
  3.314230252872E+01  3.354001015906E+01  3.394249028097E+01  3.434980016434E+01
  3.476199776632E+01  3.517914173951E+01  3.560129144039E+01  3.602850693767E+01
  3.646084902092E+01  3.689837920917E+01  3.734115975968E+01  3.778925367680E+01
  3.824272472092E+01  3.870163741757E+01  3.916605706658E+01  3.963604975138E+01
  4.011168234840E+01  4.059302253658E+01  4.108013880702E+01  4.157310047270E+01
  4.207197767837E+01  4.257684141052E+01  4.308776350744E+01  4.360481666953E+01
  4.412807446957E+01
</grid-data>
</grid>
<valence-charge total-charge="13" is-unscreening-charge="yes"
 rescaled-to-z-pseudo="no">
<radfunc>
<data npts="457">
  6.551337247781E-02  6.575138025056E-02  6.646347334607E-02  6.765351779502E-02
  6.931230326230E-02  7.150089557228E-02  7.430252285282E-02  7.752755277082E-02
  8.155802982659E-02  8.594695086565E-02  9.093294953218E-02  9.639918530986E-02
  1.030704995698E-01  1.101140080097E-01  1.172278298078E-01  1.255179921720E-01
  1.351918625156E-01  1.444876743752E-01  1.550843686679E-01  1.671786884847E-01
  1.810003725921E-01  1.934806036245E-01  2.073962126272E-01  2.229276940656E-01
  2.402806045812E-01  2.596893029079E-01  2.814212469164E-01  2.994270173782E-01
  3.190552556658E-01  3.404659502653E-01  3.638360169996E-01  3.893610962064E-01
  4.172575136709E-01  4.477644107470E-01  4.811460461558E-01  5.176942678450E-01
  5.577311477480E-01  6.016117649444E-01  6.331924346965E-01  6.667797392573E-01
  7.025070966563E-01  7.405164099540E-01  7.809584616898E-01  8.239932973988E-01
  8.697905913535E-01  9.185299864194E-01  9.704013984886E-01  1.025605274355E+00
  1.084352790112E+00  1.146865975179E+00  1.213377744881E+00  1.284131822145E+00
  1.359382526283E+00  1.439394404076E+00  1.524441675447E+00  1.614807462896E+00
  1.710782770733E+00  1.812665176866E+00  1.920757196733E+00  2.035364275875E+00
  2.156792364832E+00  2.285345027638E+00  2.421320033375E+00  2.565005379256E+00
  2.716674693862E+00  2.876581970647E+00  3.044955585221E+00  3.132379989100E+00
  3.221991555374E+00  3.313808495017E+00  3.407846011086E+00  3.504116018831E+00
  3.602626853030E+00  3.703382962671E+00  3.806384593209E+00  3.911627456752E+00
  4.019102390594E+00  4.128795004688E+00  4.240685318766E+00  4.354747389950E+00
  4.470948931897E+00  4.589250926646E+00  4.709607230551E+00  4.831964175889E+00
  4.956260169894E+00  5.082425293253E+00  5.210380900272E+00  5.340039223202E+00
  5.471302983444E+00  5.604065012618E+00  5.738207886733E+00  5.873603576988E+00
  6.010113120969E+00  6.147586318293E+00  6.285861455018E+00  6.424765061387E+00
  6.564111707701E+00  6.703703843373E+00  6.843331684412E+00  6.982773154735E+00
  7.121793886914E+00  7.260147288008E+00  7.397574676254E+00  7.533805494360E+00
  7.668557605126E+00  7.801537675001E+00  7.932441650998E+00  8.060955336125E+00
  8.186755068146E+00  8.309508506037E+00  8.428875527932E+00  8.544509243747E+00
  8.656057124850E+00  8.763162252284E+00  8.865464684063E+00  8.962602940887E+00
  9.054215608436E+00  9.139943052979E+00  9.219429245618E+00  9.292323688848E+00
  9.358283437479E+00  9.416975204192E+00  9.468077538173E+00  9.511283063413E+00
  9.546300761371E+00  9.572858280805E+00  9.590704255756E+00  9.599610610869E+00
  9.599374831604E+00  9.589822175342E+00  9.570807798101E+00  9.542218770481E+00
  9.503975955635E+00  9.456035721613E+00  9.398391460295E+00  9.331074885442E+00
  9.254157083142E+00  9.167749289161E+00  9.072003369450E+00  8.967111982337E+00
  8.853308403732E+00  8.730866000017E+00  8.600097337150E+00  8.461352918876E+00
  8.315019551727E+00  8.161518339682E+00  8.001302316894E+00  7.834853732586E+00
  7.662681008109E+00  7.485315392010E+00  7.303307344687E+00  7.117222689717E+00
  6.927638573985E+00  6.735139283301E+00  6.540311964011E+00  6.343742304136E+00
  6.146010229653E+00  5.947685672571E+00  5.749324467396E+00  5.551464431368E+00
  5.354621681539E+00  5.159287238514E+00  4.965923962268E+00  4.774963859789E+00
  4.586805797917E+00  4.401813647932E+00  4.220314881153E+00  4.042599627356E+00
  3.868920605236E+00  3.699495196563E+00  3.534508934559E+00  3.374116970888E+00
  3.218444641640E+00  3.067588969680E+00  2.921620262491E+00  2.780584721968E+00
  2.644507624051E+00  2.513394663492E+00  2.387233324148E+00  2.265994243500E+00
  2.149632575138E+00  2.038089334624E+00  1.931292723875E+00  1.829159425461E+00
  1.731595861629E+00  1.638499412572E+00  1.549759589323E+00  1.465259157413E+00
  1.384875208035E+00  1.308480174143E+00  1.235942789504E+00  1.167128989308E+00
  1.101902751454E+00  1.040126878159E+00  9.816637179642E-01  9.263758286531E-01
  8.741265819550E-01  8.247807112638E-01  7.782048038838E-01  7.342677395827E-01
  6.928410774541E-01  6.537993932782E-01  6.170205697227E-01  5.823860418499E-01
  5.497810004836E-01  5.190945560559E-01  4.902198655882E-01  4.630542254756E-01
  4.374991327330E-01  4.134603173327E-01  3.908477482183E-01  3.695756155140E-01
  3.495622913841E-01  3.307302718528E-01  3.130061019398E-01  2.963202861663E-01
  2.806071865254E-01  2.658049098280E-01  2.518551862318E-01  2.387032406338E-01
  2.262976584862E-01  2.145902474729E-01  2.035358963620E-01  1.930924322313E-01
  1.832204771492E-01  1.738833052792E-01  1.650467012716E-01  1.566788207007E-01
  1.487500532105E-01  1.412328889384E-01  1.341017887007E-01  1.273330583430E-01
  1.209047275841E-01  1.147964336127E-01  1.089893096339E-01  1.034658785038E-01
  9.820995153916E-02  9.320653254320E-02  8.844172704558E-02  8.390265671862E-02
  7.957737889976E-02  7.545481112220E-02  7.152466053185E-02  6.777735804889E-02
  6.420399711551E-02  6.079627685814E-02  5.754644948215E-02  5.444727170892E-02
  5.149196006030E-02  4.867414979177E-02  4.598785727459E-02  4.342744562753E-02
  4.098759340058E-02  3.866326611617E-02  3.644969047763E-02  3.434233105975E-02
  3.233686930209E-02  3.042918463231E-02  2.861533755368E-02  2.689155453815E-02
  2.525421457421E-02  2.369983722620E-02  2.222507206984E-02  2.082668937628E-02
  1.950157192512E-02  1.824670783398E-02  1.705918430026E-02  1.593618215752E-02
  1.487497115627E-02  1.387290588601E-02  1.292742226051E-02  1.203603449697E-02
  1.119633252327E-02  1.040597975462E-02  9.662711185570E-03  8.964331748698E-03
  8.308714895784E-03  7.693801361917E-03  7.117598076970E-03  6.578177192802E-03
  6.073675198149E-03  5.602292096470E-03  5.162290625155E-03  4.751995497298E-03
  4.369792649940E-03  4.014128485051E-03  3.683509091790E-03  3.376499440586E-03
  3.091722541466E-03  2.827858560727E-03  2.583643891584E-03  2.357870175832E-03
  2.149383274781E-03  1.957082188833E-03  1.779917926094E-03  1.616892321254E-03
  1.467056806744E-03  1.329511138852E-03  1.203402082031E-03  1.087922055123E-03
  9.823077435951E-04  8.858386822195E-04  7.978358128464E-04  7.176600220965E-04
  6.447106639042E-04  5.784240718847E-04  5.182720664903E-04  4.637604618595E-04
  4.144275771612E-04  3.698427570849E-04  3.296049059506E-04  2.933410396967E-04
  2.607048597598E-04  2.313753526014E-04  2.050554183464E-04  1.814705317055E-04
  1.603674380390E-04  1.415128871059E-04  1.246924067197E-04  1.097091182105E-04
  9.638259527621E-05  8.454776749100E-05  7.405386943491E-05  6.476343611440E-05
  5.655134506189E-05  4.930390523536E-05  4.291799258823E-05  3.730023194574E-05
  3.236622460904E-05  2.803982091133E-05  2.425243677391E-05  2.094241315228E-05
  1.805441712479E-05  1.553888325843E-05  1.335149378639E-05  1.145269605162E-05
  9.807255606790E-06  8.383843314902E-06  7.154654763351E-06  6.095060288440E-06
  5.183283904327E-06  4.400109440064E-06  3.728612209015E-06  3.153914565498E-06
  2.662963742677E-06  2.244330412408E-06  1.888026460700E-06  1.585340530600E-06
  1.328689946638E-06  1.111487700377E-06  9.280232442948E-07  7.733559102922E-07
  6.432198387324E-07  5.339393735415E-07  4.423539477465E-07  3.657515514944E-07
  3.018099405550E-07  2.485448072004E-07  2.042641968453E-07  1.675285126834E-07
  1.371155065586E-07  1.119897073370E-07  9.127578800470E-08  7.423541955917E-08
  6.024720349061E-08  4.878931528658E-08  3.942452900164E-08  3.178732759478E-08
  2.557283555571E-08  2.052733943531E-08  1.644018839928E-08  1.313689097660E-08
  1.047324592411E-08  8.330364724620E-09  6.610460829809E-09  5.233296499794E-09
  4.133192126509E-09  3.256515399030E-09  2.559578713744E-09  2.006882980896E-09
  1.569654555377E-09  1.224629539925E-09  9.530462816945E-10  7.398126092618E-10
  5.728193295465E-10  4.423758081422E-10  3.407471701859E-10  2.617758528329E-10
  2.005729786700E-10  1.532673595179E-10  1.168019335901E-10  8.876913182935E-11
  6.727810220610E-11  5.084792988456E-11  3.832200815514E-11  2.879956769622E-11
  2.158108433337E-11  1.612487910711E-11  1.201271741118E-11  8.922621975669E-12
  6.607451214606E-12  4.878070054445E-12  3.590176499848E-12  2.633989180278E-12
  5.565460317347E-13  3.961072990956E-13  2.808499691572E-13  1.983654743268E-13
  1.395622935056E-13  9.780483068652E-14  6.826881128052E-14  4.746063881229E-14
  3.286042214545E-14  2.265791133945E-14  1.555795013779E-14  1.063773017399E-14
  7.242486832521E-15  4.909603185505E-15  3.313618558061E-15  2.226554411965E-15
  1.489415064012E-15  9.918054074006E-16  6.574184474770E-16  4.337485953870E-16
  2.848333647010E-16  1.861554394899E-16  1.210787429454E-16  7.836863561127E-17
  5.047466917545E-17  3.234713223335E-17  2.062543784340E-17  1.308426484798E-17
  8.257480960474E-18  5.184071292920E-18  3.237368809683E-18  2.010868112440E-18
  1.242273515644E-18  7.632464470124E-19  4.663345952469E-19  2.833262180007E-19
  1.711602199713E-19  1.028054529455E-19  6.138986113987E-20  3.644298263833E-20
  2.150488618838E-20  1.261348767240E-20  7.353201737296E-21  4.260191200290E-21
  2.452791737805E-21  1.403261044071E-21  7.976810256435E-22  4.505046530039E-22
  2.527637546998E-22  0.000000000000E+00  0.000000000000E+00  0.000000000000E+00
  0.000000000000E+00
</data>
</radfunc>
</valence-charge>
<pseudocore-charge matching-radius="0.792286514063"
 number-of-continuous-derivatives="4">
<annotation model-charge-form="Teter function with specified parameters" />
<radfunc>
<data npts="290">
  4.801854624037E+01  4.801581880216E+01  4.800766546513E+01  4.799406253940E+01
  4.797514905872E+01  4.795027849197E+01  4.791857903619E+01  4.788227731497E+01
  4.783718784332E+01  4.778843346655E+01  4.773347317828E+01  4.767372817790E+01
  4.760151326868E+01  4.752608094480E+01  4.745071444488E+01  4.736388852159E+01
  4.726388543122E+01  4.716907273496E+01  4.706246142472E+01  4.694261366295E+01
  4.680792456306E+01  4.668829188034E+01  4.655701109019E+01  4.641298442292E+01
  4.625501828004E+01  4.608181649561E+01  4.589197348899E+01  4.573775950460E+01
  4.557264417316E+01  4.539589987465E+01  4.520675703310E+01  4.500440274562E+01
  4.478797955242E+01  4.455658438972E+01  4.430926777436E+01  4.404503327604E+01
  4.376283734155E+01  4.346158954428E+01  4.324961391703E+01  4.302831870788E+01
  4.279734743718E+01  4.255633534837E+01  4.230490980650E+01  4.204269078042E+01
  4.176929141681E+01  4.148431871483E+01  4.118737431056E+01  4.087805538110E+01
  4.055595567835E+01  4.022066670329E+01  3.987177903173E+01  3.950888380301E+01
  3.913157438316E+01  3.873944821459E+01  3.833210886408E+01  3.790916828094E+01
  3.747024927706E+01  3.701498823983E+01  3.654303808861E+01  3.605407148424E+01
  3.554778429990E+01  3.502389936010E+01  3.448217045239E+01  3.392238661417E+01
  3.334437669375E+01  3.274801418150E+01  3.213322230253E+01  3.181890626731E+01
  3.149997935776E+01  3.117644838110E+01  3.084832429451E+01  3.051562238996E+01
  3.017836248140E+01  2.983656909402E+01  2.949027165532E+01  2.913950468738E+01
  2.878430800009E+01  2.842472688477E+01  2.806081230758E+01  2.769262110242E+01
  2.732021616231E+01  2.694366662904E+01  2.656304808000E+01  2.617844271170E+01
  2.578993951905E+01  2.539763446959E+01  2.500163067181E+01  2.460203853645E+01
  2.419897592999E+01  2.379256831911E+01  2.338294890505E+01  2.297025874675E+01
  2.255464687154E+01  2.213627037201E+01  2.171529448798E+01  2.129189267198E+01
  2.086624663706E+01  2.043854638523E+01  2.000899021546E+01  1.957778470932E+01
  1.914514469307E+01  1.871129317456E+01  1.827646125332E+01  1.784088800250E+01
  1.740482032094E+01  1.696851275401E+01  1.653222728169E+01  1.609623307240E+01
  1.566080620138E+01  1.522622933210E+01  1.479279135970E+01  1.436078701512E+01
  1.393051642915E+01  1.350228465540E+01  1.307640115150E+01  1.265317921806E+01
  1.223293539503E+01  1.181598881534E+01  1.140266051597E+01  1.099327270679E+01
  1.058814799798E+01  1.018760858677E+01  9.791975405052E+00  9.401567229384E+00
  9.016699755387E+00  8.637684639035E+00  8.264828507585E+00  7.898431943389E+00
  7.538788444266E+00  7.186183364525E+00  6.840892841211E+00  6.503182710570E+00
  6.173307420202E+00  5.851508942810E+00  5.538015697877E+00  5.233041488047E+00
  4.936784457345E+00  4.649426078770E+00  4.371130179088E+00  4.102042008975E+00
  3.842287366839E+00  3.591971784867E+00  3.351179785906E+00  3.119974219830E+00
  2.898395687969E+00  2.686462064017E+00  2.484168119590E+00  2.291485262218E+00
  2.108361393076E+00  1.934720891168E+00  1.770464729925E+00  1.615470731348E+00
  1.469593961826E+00  1.332667272639E+00  1.204501986975E+00  1.084888733817E+00
  9.735984277750E-01  8.703833921720E-01  7.749786211940E-01  6.871031751260E-01
  6.064617009426E-01  5.327460687317E-01  4.656371126333E-01  4.048064632136E-01
  3.499184564911E-01  3.006321032222E-01  2.566031005774E-01  2.174858670266E-01
  1.829355801443E-01  1.526101961802E-01  1.261724296501E-01  1.032916709213E-01
  8.364581982618E-02  6.692301376573E-02  5.282322957029E-02  4.105973959840E-02
  3.136040416422E-02  2.346878439674E-02  1.714506203077E-02  1.216675538772E-02
  8.329223886242E-03  5.445956782161E-03  3.348645414865E-03  1.887041962832E-03
  9.286115057706E-04  3.579879657038E-04  7.624815992922E-05  2.164577638566E-08
  6.045716989466E-05  2.020692544967E-04  3.814906659376E-04  5.661581326078E-04
  7.329596376530E-04  8.668718525072E-04  9.596157649204E-04  1.008357278818E-03
  1.014477537616E-03  9.824349898860E-04  9.187378470716E-04  8.310416757166E-04
  7.273825454498E-04  6.155515655294E-04  5.026119515117E-04  3.945551457172E-04
  2.960881511435E-04  2.105403049535E-04  1.398743785796E-04  8.478428902755E-05
  4.485995197048E-05  1.879897544382E-05  4.645012818135E-06  3.364625782804E-08
  2.428588088740E-06  9.333649878346E-06  1.846917613846E-05  2.790527391961E-05
  3.614796856127E-05  4.217814517455E-05  4.544656428544E-05  4.583115728175E-05
  4.356503700940E-05  3.914507452515E-05  3.323142850811E-05  2.654807031812E-05
  1.979319528923E-05  1.356658455222E-05  8.318671302347E-06  4.323500047637E-06
  1.675195300865E-06  3.052220477575E-07  1.584140257738E-08  5.239089929886E-07
  1.508631293288E-06  2.657107993692E-06  3.702386070876E-06  4.450196839580E-06
  4.792343179237E-06  4.706614651513E-06  4.244888455596E-06  3.512501043859E-06
  2.642876861639E-06  1.771679902397E-06  1.014402080113E-06  4.504017656497E-07
  1.151171402891E-07  7.183583330029E-10  0.000000000000E+00  0.000000000000E+00
  0.000000000000E+00  0.000000000000E+00  0.000000000000E+00  0.000000000000E+00
  0.000000000000E+00  0.000000000000E+00  0.000000000000E+00  0.000000000000E+00
  0.000000000000E+00  0.000000000000E+00  0.000000000000E+00  0.000000000000E+00
  0.000000000000E+00  0.000000000000E+00  0.000000000000E+00  0.000000000000E+00
  0.000000000000E+00  0.000000000000E+00  0.000000000000E+00  0.000000000000E+00
  0.000000000000E+00  0.000000000000E+00  0.000000000000E+00  0.000000000000E+00
  0.000000000000E+00  0.000000000000E+00  0.000000000000E+00  0.000000000000E+00
  0.000000000000E+00  0.000000000000E+00  0.000000000000E+00  0.000000000000E+00
  0.000000000000E+00  0.000000000000E+00  0.000000000000E+00  0.000000000000E+00
  0.000000000000E+00  0.000000000000E+00  0.000000000000E+00  0.000000000000E+00
  0.000000000000E+00  0.000000000000E+00
</data>
</radfunc>
</pseudocore-charge>
<semilocal-potentials set="scalar_relativistic">
<slps n="4" l="s" rc="1.50879396696" eref="-2.14850034522">
<radfunc>
<data npts="290">
  5.754042482982E+01  5.749285091463E+01  5.735096538125E+01  5.711534522161E+01
  5.679000528689E+01  5.636615798783E+01  5.583235531028E+01  5.522972419998E+01
  5.449380146757E+01  5.371334183340E+01  5.285200186721E+01  5.193714966120E+01
  5.086011276395E+01  4.976735389619E+01  4.870706909535E+01  4.752288105891E+01
  4.620608248789E+01  4.500182295446E+01  4.369632826659E+01  4.228676504283E+01
  4.077143001798E+01  3.948272082261E+01  3.812659911446E+01  3.670430585545E+01
  3.521784163594E+01  3.367000710138E+01  3.206442704113E+01  3.082499488379E+01
  2.955774971515E+01  2.826512061241E+01  2.694977242324E+01  2.561458856825E+01
  2.426264978482E+01  2.289720908698E+01  2.152166334027E+01  2.013952196685E+01
  1.875437339806E+01  1.736984997407E+01  1.644898012360E+01  1.553107982417E+01
  1.461721209092E+01  1.370842521084E+01  1.280574835616E+01  1.191018739758E+01
  1.102272095537E+01  1.014429672293E+01  9.275828093222E+00  8.418191113850E+00
  7.572221792080E+00  6.738713766031E+00  5.918416353345E+00  5.112032983761E+00
  4.320220017190E+00  3.543585944369E+00  2.782690962879E+00  2.038046917411E+00
  1.310117589646E+00  5.993193200594E-01 -9.397805867020E-02 -7.694499990868E-01
 -1.426815751354E+00 -2.065836635971E+00 -2.686314102951E+00 -3.288087604022E+00
 -3.871032304456E+00 -4.435056660842E+00 -4.980099890640E+00 -5.245492357819E+00
 -5.506129358563E+00 -5.762010772927E+00 -6.013137903954E+00 -6.259513392546E+00
 -6.501141132286E+00 -6.738026184371E+00 -6.970174692822E+00 -7.197593800110E+00
 -7.420291563353E+00 -7.638276871242E+00 -7.851559361802E+00 -8.060149341162E+00
 -8.264057703448E+00 -8.463295851926E+00 -8.657875621534E+00 -8.847809202921E+00
 -9.033109068117E+00 -9.213787897950E+00 -9.389858511335E+00 -9.561333796549E+00
 -9.728226644604E+00 -9.890549884842E+00 -1.004831622286E+01 -1.020153818088E+01
 -1.035022804069E+01 -1.049439778925E+01 -1.063405906711E+01 -1.076922311975E+01
 -1.089990075191E+01 -1.102610228517E+01 -1.114783751874E+01 -1.126511569368E+01
 -1.137794546075E+01 -1.148633485185E+01 -1.159029125540E+01 -1.168982139564E+01
 -1.178493131609E+01 -1.187562636741E+01 -1.196191119961E+01 -1.204378975906E+01
 -1.212126529032E+01 -1.219434034302E+01 -1.226301678406E+01 -1.232729581533E+01
 -1.238717799721E+01 -1.244266327804E+01 -1.249375103004E+01 -1.254044009166E+01
 -1.258272881708E+01 -1.262061513284E+01 -1.265409660228E+01 -1.268317049798E+01
 -1.270783388283E+01 -1.272808370010E+01 -1.274391687307E+01 -1.275533041489E+01
 -1.276232154922E+01 -1.276488784244E+01 -1.276302734810E+01 -1.275673876473E+01
 -1.274602160765E+01 -1.273087639616E+01 -1.271130485712E+01 -1.268731014631E+01
 -1.265889708911E+01 -1.262607244204E+01 -1.258884517711E+01 -1.254722679099E+01
 -1.250123164124E+01 -1.245087731216E+01 -1.239618501306E+01 -1.233718001196E+01
 -1.227389210815E+01 -1.220635614716E+01 -1.213461258229E+01 -1.205870808679E+01
 -1.197869622132E+01 -1.189463816149E+01 -1.180660349038E+01 -1.171467106120E+01
 -1.161892993495E+01 -1.151948039812E+01 -1.141643506467E+01 -1.130992006620E+01
 -1.120007633278E+01 -1.108706096591E+01 -1.097104870261E+01 -1.085223346724E+01