<?xml version="1.0" encoding="UTF-8" ?>
<psml version="1.1" energy_unit="hartree" length_unit="bohr"
 uuid="06435360-23d2-11e8-774a-bd64efbe0314"
 xmlns="http://esl.cecam.org/PSML/ns/1.1">
<provenance creator="ONCVPSP-3.3.0+psml-3.3.0-73 (scalar-relativistic)"
 date="2018-03-09">
<annotation action="semilocal-pseudopotential-generation"
 action-cont="projectors-generation" />
<input-file name="oncvpsp-input">
<![CDATA[# atsym z nc nv iexc psfile
Ne 10 1 2 -001012 upf
# n l f
1 0 2.0
2 0 2.0
2 1 6.0
# lmax
1
# l rc ep ncon nbas qcut
0 1.3 0.0 4 7 8.7
1 1.7 0.0 4 7 8.5
# lloc lpopt rc5 dvloc0
4 5 1.3 0.0
# l nproj debl
0 2 1.5
1 2 1.5
# icmod fcfact rcfact
0 0.05 0.0
# epsh1 epsh2 depsh
-12.0 12.0 0.02
# rlmax drl
4.0 0.01
 0
]]>
</input-file>
</provenance>
<pseudo-atom-spec atomic-label="Ne" atomic-number="10" z-pseudo="8"
 flavor="Hamann&apos;s oncvpsp" relativity="scalar" spin-dft="no"
 core-corrections="no">
<annotation pseudo-energy="-33.3861482415" />
<exchange-correlation>
<annotation oncvpsp-xc-code="-1012" oncvpsp-xc-type="libxc-interface" />
<libxc-info number-of-functionals="2">
<functional name="Slater exchange (LDA)" type="exchange" id="1" />
<functional name="Perdew &amp; Wang (LDA)" type="correlation" id="12" />
</libxc-info>
</exchange-correlation>
<valence-configuration total-valence-charge="8">
<shell n="2" l="s" occupation="2" />
<shell n="2" l="p" occupation="6" />
</valence-configuration>
</pseudo-atom-spec>
<grid npts="457">
<annotation type="sampled from oncvpsp log grid"
 recipe="r(i:1..N) = r1*exp(a*(i-1)) + r=0; resampled"
 recipe-cont="r1: scale; a: step" scale="0.500000000000E-04"
 step="0.119285708653E-01" delta="0.500000000000E-02" rmax="44.2790565342" />
<grid-data>
  0.000000000000E+00  5.056247722070E-03  1.009945802476E-02  1.515079750118E-02
  2.017287482746E-02  2.530448665413E-02  3.062567936492E-02  3.576287246250E-02
  4.077725916977E-02  4.594340263175E-02  5.115025098203E-02  5.627193755841E-02
  6.190645980780E-02  6.729759692282E-02  7.315822235107E-02  7.858618733336E-02
  8.441687948565E-02  8.960492005827E-02  9.511180403221E-02  1.009571266888E-01
  1.071616875840E-01  1.123987792098E-01  1.178918123882E-01  1.236532952216E-01
  1.296963470949E-01  1.360347285499E-01  1.426828726186E-01  1.478813415899E-01
  1.532692101656E-01  1.588533788796E-01  1.646409996776E-01  1.706394850775E-01
  1.768565176628E-01  1.833000599224E-01  1.899783644480E-01  1.968999845042E-01
  2.040737849828E-01  2.115089537568E-01  2.166156259363E-01  2.218455936089E-01
  2.272018336210E-01  2.326873946919E-01  2.383053991494E-01  2.440590447064E-01
  2.499516062818E-01  2.559864378639E-01  2.621669744197E-01  2.684967338501E-01
  2.749793189921E-01  2.816184196699E-01  2.884178147944E-01  2.953813745148E-01
  3.025130624211E-01  3.098169378002E-01  3.172971579464E-01  3.249579805279E-01
  3.328037660097E-01  3.408389801363E-01  3.490681964727E-01  3.574960990083E-01
  3.661274848228E-01  3.749672668164E-01  3.840204765064E-01  3.932922668911E-01
  4.027879153830E-01  4.125128268120E-01  4.224725365025E-01  4.275422069405E-01
  4.326727134238E-01  4.378647859849E-01  4.431191634167E-01  4.484365933777E-01
  4.538178324983E-01  4.592636464882E-01  4.647748102461E-01  4.703521079691E-01
  4.759963332647E-01  4.817082892639E-01  4.874887887350E-01  4.933386541998E-01
  4.992587180502E-01  5.052498226668E-01  5.113128205389E-01  5.174485743853E-01
  5.236579572779E-01  5.299418527653E-01  5.363011549985E-01  5.427367688584E-01
  5.492496100847E-01  5.558406054058E-01  5.625106926706E-01  5.692608209827E-01
  5.760919508345E-01  5.830050542445E-01  5.900011148954E-01  5.970811282742E-01
  6.042461018134E-01  6.114970550352E-01  6.188350196956E-01  6.262610399320E-01
  6.337761724112E-01  6.413814864801E-01  6.490780643179E-01  6.568670010897E-01
  6.647494051028E-01  6.727263979640E-01  6.807991147396E-01  6.889687041164E-01
  6.972363285658E-01  7.056031645086E-01  7.140704024827E-01  7.226392473125E-01
  7.313109182803E-01  7.400866492996E-01  7.489676890912E-01  7.579553013603E-01
  7.670507649766E-01  7.762553741564E-01  7.855704386462E-01  7.949972839100E-01
  8.045372513169E-01  8.141916983327E-01  8.239619987127E-01  8.338495426973E-01
  8.438557372096E-01  8.539820060561E-01  8.642297901288E-01  8.746005476104E-01
  8.850957541817E-01  8.957169032319E-01  9.064655060706E-01  9.173430921435E-01
  9.283512092492E-01  9.394914237602E-01  9.507653208453E-01  9.621745046955E-01
  9.737205987518E-01  9.854052459368E-01  9.972301088881E-01  1.009196870195E+00
  1.021307232637E+00  1.033562919429E+00  1.045965674462E+00  1.058517262555E+00
  1.071219469706E+00  1.084074103343E+00  1.097082992583E+00  1.110247988494E+00
  1.123570964356E+00  1.137053815928E+00  1.150698461719E+00  1.164506843260E+00
  1.178480925379E+00  1.192622696483E+00  1.206934168841E+00  1.221417378867E+00
  1.236074387414E+00  1.250907280063E+00  1.265918167423E+00  1.281109185432E+00
  1.296482495658E+00  1.312040285605E+00  1.327784769033E+00  1.343718186261E+00
  1.359842804496E+00  1.376160918150E+00  1.392674849168E+00  1.409386947358E+00
  1.426299590726E+00  1.443415185815E+00  1.460736168045E+00  1.478265002061E+00
  1.496004182086E+00  1.513956232271E+00  1.532123707058E+00  1.550509191543E+00
  1.569115301842E+00  1.587944685464E+00  1.607000021689E+00  1.626284021949E+00
  1.645799430213E+00  1.665549023375E+00  1.685535611656E+00  1.705762038996E+00
  1.726231183464E+00  1.746945957665E+00  1.767909309157E+00  1.789124220867E+00
  1.810593711518E+00  1.832320836056E+00  1.854308686088E+00  1.876560390322E+00
  1.899079115005E+00  1.921868064385E+00  1.944930481158E+00  1.968269646932E+00
  1.991888882695E+00  2.015791549288E+00  2.039981047879E+00  2.064460820454E+00
  2.089234350299E+00  2.114305162503E+00  2.139676824453E+00  2.165352946346E+00
  2.191337181702E+00  2.217633227883E+00  2.244244826617E+00  2.271175764537E+00
  2.298429873711E+00  2.326011032196E+00  2.353923164582E+00  2.382170242557E+00
  2.410756285468E+00  2.439685360893E+00  2.468961585224E+00  2.498589124247E+00
  2.528572193738E+00  2.558915060062E+00  2.589622040783E+00  2.620697505273E+00
  2.652145875336E+00  2.683971625840E+00  2.716179285350E+00  2.748773436774E+00
  2.781758718015E+00  2.815139822632E+00  2.848921500503E+00  2.883108558509E+00
  2.917705861211E+00  2.952718331546E+00  2.988150951524E+00  3.024008762943E+00
  3.060296868098E+00  3.097020430515E+00  3.134184675681E+00  3.171794891790E+00
  3.209856430491E+00  3.248374707657E+00  3.287355204149E+00  3.326803466599E+00
  3.366725108198E+00  3.407125809496E+00  3.448011319210E+00  3.489387455041E+00
  3.531260104501E+00  3.573635225755E+00  3.616518848464E+00  3.659917074646E+00
  3.703836079541E+00  3.748282112496E+00  3.793261497846E+00  3.838780635820E+00
  3.884846003450E+00  3.931464155491E+00  3.978641725357E+00  4.026385426062E+00
  4.074702051174E+00  4.123598475788E+00  4.173081657498E+00  4.223158637388E+00
  4.273836541036E+00  4.325122579529E+00  4.377024050483E+00  4.429548339089E+00
  4.482702919158E+00  4.536495354188E+00  4.590933298438E+00  4.646024498020E+00
  4.701776791996E+00  4.758198113500E+00  4.815296490862E+00  4.873080048752E+00
  4.931557009337E+00  4.990735693449E+00  5.050624521770E+00  5.111232016032E+00
  5.172566800224E+00  5.234637601827E+00  5.297453253049E+00  5.361022692085E+00
  5.425354964390E+00  5.490459223963E+00  5.556344734651E+00  5.623020871466E+00
  5.690497121924E+00  5.758783087387E+00  5.827888484436E+00  5.897823146249E+00
  5.968597024004E+00  6.040220188292E+00  6.112702830551E+00  6.186055264518E+00
  6.260287927692E+00  6.335411382825E+00  6.411436319419E+00  6.488373555252E+00
  6.566234037915E+00  6.645028846370E+00  6.724769192526E+00  6.805466422836E+00
  6.887132019910E+00  6.969777604149E+00  7.053414935399E+00  7.138055914624E+00
  7.223712585599E+00  7.310397136626E+00  7.398121902266E+00  7.486899365093E+00
  7.576742157474E+00  7.667663063364E+00  7.759675020124E+00  7.852791120366E+00
  7.947024613810E+00  8.042388909176E+00  8.138897576086E+00  8.236564346999E+00
  8.335403119163E+00  8.435427956593E+00  8.536653092072E+00  8.639092929177E+00
  8.742762044327E+00  8.847675188859E+00  8.953847291125E+00  9.061293458619E+00
  9.170028980122E+00  9.280069327884E+00  9.391430159818E+00  9.504127321736E+00
  9.618176849597E+00  9.733594971792E+00  9.850398111454E+00  9.968602888791E+00
  1.008822612346E+01  1.020928483694E+01  1.033179625498E+01  1.045577781004E+01
  1.058124714376E+01  1.070822210949E+01  1.083672077480E+01  1.096676142410E+01
  1.109836256119E+01  1.123154291192E+01  1.136632142686E+01  1.150271728399E+01
  1.164074989140E+01  1.178043889009E+01  1.192180415677E+01  1.206486580665E+01
  1.220964419633E+01  1.235615992669E+01  1.250443384581E+01  1.265448705196E+01
  1.280634089658E+01  1.296001698734E+01  1.311553719119E+01  1.327292363748E+01
  1.343219872113E+01  1.359338510579E+01  1.375650572706E+01  1.392158379578E+01
  1.408864280133E+01  1.425770651495E+01  1.442879899313E+01  1.460194458104E+01
  1.477716791602E+01  1.495449393101E+01  1.513394785818E+01  1.531555523248E+01
  1.549934189527E+01  1.568533399801E+01  1.587355800599E+01  1.606404070206E+01
  1.625680919049E+01  1.645189090077E+01  1.664931359158E+01  1.684910535468E+01
  1.705129461894E+01  1.725591015436E+01  1.746298107622E+01  1.767253684913E+01
  1.788460729132E+01  1.809922257882E+01  1.831641324976E+01  1.853621020876E+01
  1.875864473126E+01  1.898374846804E+01  1.921155344965E+01  1.944209209105E+01
  1.967539719614E+01  1.991150196250E+01  2.015043998605E+01  2.039224526588E+01
  2.063695220907E+01  2.088459563558E+01  2.113521078321E+01  2.138883331260E+01
  2.164549931236E+01  2.190524530410E+01  2.216810824775E+01  2.243412554673E+01
  2.270333505329E+01  2.297577507393E+01  2.325148437481E+01  2.353050218731E+01
  2.381286821356E+01  2.409862263212E+01  2.438780610371E+01  2.468045977695E+01
  2.497662529428E+01  2.527634479781E+01  2.557966093538E+01  2.588661686660E+01
  2.619725626900E+01  2.651162334423E+01  2.682976282436E+01  2.715171997826E+01
  2.747754061799E+01  2.780727110541E+01  2.814095835868E+01  2.847864985898E+01
  2.882039365729E+01  2.916623838117E+01  2.951623324175E+01  2.987042804065E+01
  3.022887317714E+01  3.059161965526E+01  3.095871909113E+01  3.133022372022E+01
  3.170618640486E+01  3.208666064172E+01  3.247170056942E+01  3.286136097625E+01
  3.325569730797E+01  3.365476567566E+01  3.405862286377E+01  3.446732633814E+01
  3.488093425420E+01  3.529950546525E+01  3.572309953083E+01  3.615177672520E+01
  3.658559804590E+01  3.702462522245E+01  3.746892072512E+01  3.791854777382E+01
  3.837357034711E+01  3.883405319127E+01  3.930006182957E+01  3.977166257152E+01
  4.024892252238E+01  4.073190959265E+01  4.122069250776E+01  4.171534081786E+01
  4.221592490767E+01  4.272251600656E+01  4.323518619864E+01  4.375400843303E+01
  4.427905653422E+01
</grid-data>
</grid>
<valence-charge total-charge="8" is-unscreening-charge="yes"
 rescaled-to-z-pseudo="no">
<radfunc>
<data npts="457">
  1.099408585600E+01  1.099776277554E+01  1.100875085354E+01  1.102707131846E+01
  1.105251933126E+01  1.108593881280E+01  1.112846246403E+01  1.117706072256E+01
  1.123158316067E+01  1.129500307589E+01  1.136627928270E+01  1.144350058977E+01
  1.153647803012E+01  1.163317576978E+01  1.174670941759E+01  1.185951471270E+01
  1.198869337576E+01  1.211042994717E+01  1.224645908938E+01  1.239829570751E+01
  1.256757060991E+01  1.271671348167E+01  1.287907001202E+01  1.305561736374E+01
  1.324736288480E+01  1.345533452222E+01  1.368056813147E+01  1.386144040662E+01
  1.405302475670E+01  1.425572978949E+01  1.446994197855E+01  1.469601751389E+01
  1.493427288768E+01  1.518497409049E+01  1.544832429363E+01  1.572444989662E+01
  1.601338482750E+01  1.631505299812E+01  1.652314358017E+01  1.673670788562E+01
  1.695561587267E+01  1.717970147961E+01  1.740875925128E+01  1.764254080878E+01
  1.788075117452E+01  1.812304496876E+01  1.836902249850E+01  1.861822576508E+01
  1.887013442266E+01  1.912416172679E+01  1.937965051935E+01  1.963586930468E+01
  1.989200848016E+01  2.014717679434E+01  2.040039811559E+01  2.065060860495E+01
  2.089665439767E+01  2.113728990923E+01  2.137117689258E+01  2.159688438394E+01
  2.181288968479E+01  2.201758053618E+01  2.220925864882E+01  2.238614475729E+01
  2.254638536861E+01  2.268806137362E+01  2.280919868344E+01  2.286143649746E+01
  2.290778104129E+01  2.294797617438E+01  2.298176514202E+01  2.300889118126E+01
  2.302909816612E+01  2.304213129227E+01  2.304773780120E+01  2.304566774353E+01
  2.303567478095E+01  2.301751702608E+01  2.299095791897E+01  2.295576713916E+01
  2.291172155126E+01  2.285860618218E+01  2.279621522755E+01  2.272435308437E+01
  2.264283540684E+01  2.255149018154E+01  2.245015881800E+01  2.233869725005E+01
  2.221697704303E+01  2.208488650130E+01  2.194233177032E+01  2.178923792685E+01
  2.162555005055E+01  2.145123426966E+01  2.126627877337E+01  2.107069478264E+01
  2.086451747137E+01  2.064780682915E+01  2.042064845682E+01  2.018315428565E+01
  1.993546321110E+01  1.967774163179E+01  1.941018388448E+01  1.913301256604E+01
  1.884647873336E+01  1.855086197274E+01  1.824647033061E+01  1.793364009785E+01
  1.761273544095E+01  1.728414787372E+01  1.694829556438E+01  1.660562247394E+01
  1.625659732269E+01  1.590171238339E+01  1.554148210061E+01  1.517644153780E+01
  1.480714465481E+01  1.443416242066E+01  1.405808076795E+01  1.367949839736E+01
  1.329902444244E+01  1.291727600682E+01  1.253487558799E+01  1.215244840347E+01
  1.177061963723E+01  1.139001162551E+01  1.101124100316E+01  1.063491583271E+01
  1.026163273943E+01  9.891974077042E+00  9.526505148671E+00  9.165771508677E+00
  8.810296370446E+00  8.460578145248E+00  8.117088136383E+00  7.780268411846E+00
  7.450529877248E+00  7.128250568954E+00  6.813774185177E+00  6.507408870316E+00
  6.209426264961E+00  5.920060830942E+00  5.639509457505E+00  5.367931351227E+00
  5.105448208745E+00  4.852144667770E+00  4.608069028318E+00  4.373234232638E+00
  4.147619089078E+00  3.931169722093E+00  3.723801227967E+00  3.525399513455E+00
  3.335823292740E+00  3.154906216647E+00  2.982459107185E+00  2.818272270074E+00
  2.662117858056E+00  2.513752258357E+00  2.372918478806E+00  2.239348508554E+00
  2.112765631245E+00  1.992886670631E+00  1.879424273632E+00  1.772089579920E+00
  1.670595061203E+00  1.574656189229E+00  1.483992967142E+00  1.398331314935E+00
  1.317404308988E+00  1.240953275541E+00  1.168728739460E+00  1.100491230775E+00
  1.036011952436E+00  9.750733133474E-01  9.174693311676E-01  8.630059096199E-01
  8.115009951284E-01  7.627846175973E-01  7.166988200850E-01  6.730974820481E-01
  6.318460407824E-01  5.928211157033E-01  5.559100402148E-01  5.210103061442E-01
  4.880285058634E-01  4.568775840028E-01  4.274732688724E-01  3.997340759624E-01
  3.735812578897E-01  3.489387807127E-01  3.257332953757E-01  3.038941046777E-01
  2.833531261459E-01  2.640448511862E-01  2.459063008693E-01  2.288769786967E-01
  2.128988206801E-01  1.979161430536E-01  1.838755879219E-01  1.707260671365E-01
  1.584187046778E-01  1.469067778026E-01  1.361456572086E-01  1.260927464481E-01
  1.167074208118E-01  1.079509658899E-01  9.978651600176E-02  9.217899267513E-02
  8.509504334132E-02  7.850298039959E-02  7.237272079302E-02  6.667572622517E-02
  6.138494413586E-02  5.647474954294E-02  5.192088784661E-02  4.770041868221E-02
  4.379166089806E-02  4.017413872522E-02  3.682852919751E-02  3.373661087149E-02
  3.088121388844E-02  2.824617141264E-02  2.581627247340E-02  2.357721623175E-02
  2.151556768640E-02  1.961871482816E-02  1.787482724640E-02  1.627281618652E-02
  1.480229605280E-02  1.345354734694E-02  1.221748102883E-02  1.108560428278E-02
  1.004998766928E-02  9.103233639779E-03  8.238446389458E-03  7.449203020855E-03
  6.729525989402E-03  6.073856800274E-03  5.477030924640E-03  4.934253902271E-03
  4.441078596546E-03  3.993383567181E-03  3.587352525484E-03  3.219454836563E-03
  2.886427032719E-03  2.585255302183E-03  2.313158917424E-03  2.067574567434E-03
  1.846141558687E-03  1.646687849856E-03  1.467216885822E-03  1.305895197086E-03
  1.161040731270E-03  1.031111884088E-03  9.146971978644E-04  8.105056964587E-04
  7.173578262381E-04  6.341769735663E-04  5.599815301324E-04  4.938774783102E-04
  4.350514696166E-04  3.827643702363E-04  3.363452484708E-04  2.951857798733E-04
  2.587350467265E-04  2.264947094161E-04  1.980145281390E-04  1.728882142627E-04
  1.507495915223E-04  1.312690480936E-04  1.141502614226E-04  9.912717851533E-05
  8.596123520163E-05  7.443879867319E-05  6.436881837040E-05  5.558067104134E-05
  4.792218652851E-05  4.125784154855E-05  3.546710941872E-05  3.044295435120E-05
  2.609045958073E-05  2.232557921406E-05  1.907400428946E-05  1.627013411229E-05
  1.385614448758E-05  1.178114500293E-05  1.000041802496E-05  8.474732560259E-06
  7.169726597007E-06  6.055351987127E-06  5.105376350625E-06  4.296936884368E-06
  3.610141337238E-06  3.027711772760E-06  2.534667079442E-06  2.118040508682E-06
  1.766628820688E-06  1.470769901036E-06  1.222145974806E-06  1.013609792335E-06
  8.390313911680E-07  6.931632533216E-07  5.715218763535E-07  4.702839614560E-07
  3.861955926644E-07  3.164929389407E-07  2.588331560554E-07  2.112342985354E-07
  1.720231741511E-07  1.397901851526E-07  1.133503023855E-07  9.170941116825E-08
  7.403535201276E-08  5.963305552249E-08  4.792323969017E-08  3.842419989715E-08
  3.073627772172E-08  2.452864470320E-08  1.952808196413E-08  1.550947652028E-08
  1.228779063655E-08  9.711292118443E-09  7.655861340691E-09  6.020215456019E-09
  4.721911924333E-09  3.694012555424E-09  2.882305943967E-09  2.243000748348E-09
  1.740814956980E-09  1.347397309444E-09  1.040026587363E-09  8.005427357624E-10
  6.144708768398E-10  4.703053759548E-10  3.589263407563E-10  2.731253913548E-10
  2.072213404466E-10  1.567495622647E-10  1.182121101084E-10  8.887546924841E-11
  6.661204340541E-11  4.976952015801E-11  3.706798435346E-11  2.751963042914E-11
  2.036467215068E-11  1.502056735636E-11  1.104210891882E-11  8.090157416632E-12
  5.907224085907E-12  4.298466132481E-12  3.116944079470E-12  2.252224000978E-12
  1.621595898303E-12  1.163331177639E-12  8.315239087049E-13  5.921577471152E-13
  4.201187676540E-13  2.969333109056E-13  2.090633821827E-13  1.466253426624E-13
  1.024310644748E-13  7.127303040305E-14  4.939337710650E-14  3.409109756864E-14
  2.343260453196E-14  1.603931221193E-14  1.093237510775E-14  7.419670736698E-15
  5.013874777387E-15  3.373324862204E-15  2.259515994979E-15  1.506681903112E-15
  1.000120839719E-15  6.608203426135E-16  4.345991434224E-16  2.844739169206E-16
  1.853173178702E-16  0.000000000000E+00  0.000000000000E+00  0.000000000000E+00
  0.000000000000E+00  0.000000000000E+00  0.000000000000E+00  0.000000000000E+00
  0.000000000000E+00  0.000000000000E+00  0.000000000000E+00  0.000000000000E+00
  0.000000000000E+00  0.000000000000E+00  0.000000000000E+00  0.000000000000E+00
  0.000000000000E+00  0.000000000000E+00  0.000000000000E+00  0.000000000000E+00
  0.000000000000E+00  0.000000000000E+00  0.000000000000E+00  0.000000000000E+00
  0.000000000000E+00  0.000000000000E+00  0.000000000000E+00  0.000000000000E+00
  0.000000000000E+00  0.000000000000E+00  0.000000000000E+00  0.000000000000E+00
  0.000000000000E+00  0.000000000000E+00  0.000000000000E+00  0.000000000000E+00
  0.000000000000E+00  0.000000000000E+00  0.000000000000E+00  0.000000000000E+00
  0.000000000000E+00  0.000000000000E+00  0.000000000000E+00  0.000000000000E+00
  0.000000000000E+00  0.000000000000E+00  0.000000000000E+00  0.000000000000E+00
  0.000000000000E+00  0.000000000000E+00  0.000000000000E+00  0.000000000000E+00
  0.000000000000E+00  0.000000000000E+00  0.000000000000E+00  0.000000000000E+00
  0.000000000000E+00  0.000000000000E+00  0.000000000000E+00  0.000000000000E+00
  0.000000000000E+00  0.000000000000E+00  0.000000000000E+00  0.000000000000E+00
  0.000000000000E+00  0.000000000000E+00  0.000000000000E+00  0.000000000000E+00
  0.000000000000E+00  0.000000000000E+00  0.000000000000E+00  0.000000000000E+00
  0.000000000000E+00  0.000000000000E+00  0.000000000000E+00  0.000000000000E+00
  0.000000000000E+00  0.000000000000E+00  0.000000000000E+00  0.000000000000E+00
  0.000000000000E+00
</data>
</radfunc>
</valence-charge>
<semilocal-potentials set="scalar_relativistic">
<slps n="2" l="s" rc="1.31204028561" eref="-1.32722338159">
<radfunc>
<data npts="256">
 -1.321898446382E+01 -1.321884188389E+01 -1.321841578701E+01 -1.321770533371E+01
 -1.321671843383E+01 -1.321542229805E+01 -1.321377288381E+01 -1.321188754547E+01
 -1.320977192679E+01 -1.320731034460E+01 -1.320454274541E+01 -1.320154279253E+01
 -1.319792830793E+01 -1.319416594843E+01 -1.318974365332E+01 -1.318534377073E+01
 -1.318029696039E+01 -1.317553178496E+01 -1.317019544673E+01 -1.316422275227E+01
 -1.315754159184E+01 -1.315163325845E+01 -1.314517595263E+01 -1.313812122207E+01
 -1.313041648706E+01 -1.312200462590E+01 -1.311282348816E+01 -1.310539226727E+01
 -1.309745947361E+01 -1.308899205805E+01 -1.307995457496E+01 -1.307030893147E+01
 -1.306001409960E+01 -1.304902578591E+01 -1.303729605300E+01 -1.302477288656E+01
 -1.301139970150E+01 -1.299711478022E+01 -1.298705191099E+01 -1.297653239903E+01
 -1.296553329439E+01 -1.295403015055E+01 -1.294199690336E+01 -1.292940574111E+01
 -1.291622696536E+01 -1.290242884225E+01 -1.288797744419E+01 -1.287283648181E+01
 -1.285696712604E+01 -1.284032782057E+01 -1.282287408482E+01 -1.280455830784E+01
 -1.278532953370E+01 -1.276513323905E+01 -1.274391110394E+01 -1.272160077704E+01
 -1.269813563684E+01 -1.267344455060E+01 -1.264745163333E+01 -1.262007600918E+01
 -1.259123157840E+01 -1.256082679315E+01 -1.252876444609E+01 -1.249494147607E+01
 -1.245924879588E+01 -1.242157114738E+01 -1.238178699011E+01 -1.236106525292E+01
 -1.233976842972E+01 -1.231787953686E+01 -1.229538119345E+01 -1.227225562363E+01
 -1.224848466004E+01 -1.222404974823E+01 -1.219893195235E+01 -1.217311196210E+01
 -1.214657010091E+01 -1.211928633564E+01 -1.209124028760E+01 -1.206241124524E+01
 -1.203277817838E+01 -1.200231975417E+01 -1.197101435477E+01 -1.193884009692E+01
 -1.190577485339E+01 -1.187179627643E+01 -1.183688182330E+01 -1.180100878391E+01
 -1.176415431064E+01 -1.172629545053E+01 -1.168740917969E+01 -1.164747244017E+01
 -1.160646217934E+01 -1.156435539176E+01 -1.152112916358E+01 -1.147676071973E+01
 -1.143122747367E+01 -1.138450707995E+01 -1.133657748962E+01 -1.128741700835E+01
 -1.123700435761E+01 -1.118531873868E+01 -1.113233989966E+01 -1.107804820556E+01
 -1.102242471138E+01 -1.096545123839E+01 -1.090711045351E+01 -1.084738595199E+01
 -1.078626234326E+01 -1.072372534025E+01 -1.065976185204E+01 -1.059436008004E+01
 -1.052750961779E+01 -1.045920155446E+01 -1.038942858221E+01 -1.031818510755E+01
 -1.024546736690E+01 -1.017127354650E+01 -1.009560390703E+01 -1.001846091308E+01
 -9.939849367889E+00 -9.859776553699E+00 -9.778252378125E+00 -9.695289527055E+00
 -9.610903624619E+00 -9.525113400844E+00 -9.437940867709E+00 -9.349411504394E+00
 -9.259554452590E+00 -9.168402722890E+00 -9.075993413328E+00 -8.982367941301E+00
 -8.887572290204E+00 -8.791657272228E+00 -8.694678808910E+00 -8.596698231145E+00
 -8.497782600463E+00 -8.398005053507E+00 -8.297445171715E+00 -8.196189378242E+00
 -8.094331364212E+00 -7.991972546304E+00 -7.889222557571E+00 -7.786199773202E+00
 -7.683031872561E+00 -7.579856438435E+00 -7.476821593707E+00 -7.374086674891E+00
 -7.271822940833E+00 -7.170214313531E+00 -7.069458146372E+00 -6.969766013048E+00
 -6.871364508041E+00 -6.774496046821E+00 -6.679419650740E+00 -6.586411698156E+00
 -6.495766619527E+00 -6.407797510221E+00 -6.322836630810E+00 -6.241235760680E+00
 -6.163366367362E+00 -6.089619551257E+00 -6.018479540151E+00 -5.948049797770E+00
 -5.878360917207E+00 -5.809407248081E+00 -5.741183711761E+00 -5.673685781188E+00
 -5.606909451551E+00 -5.540851201436E+00 -5.475507944148E+00 -5.410876969008E+00
 -5.346955872559E+00 -5.283742479688E+00 -5.221234754816E+00 -5.159430703404E+00
 -5.098328264162E+00 -5.037925192460E+00 -4.978218935582E+00 -4.919206500663E+00
 -4.860884316292E+00 -4.803248089089E+00 -4.746292656826E+00 -4.690011840125E+00
 -4.634398397498E+00 -4.579444423570E+00 -4.525142104690E+00 -4.471483712634E+00
 -4.418461610856E+00 -4.366068253391E+00 -4.314296183791E+00 -4.263138034054E+00
 -4.212586523582E+00 -4.162634458137E+00 -4.113274728822E+00 -4.064500311064E+00
 -4.016304263617E+00 -3.968679727570E+00 -3.921619925372E+00 -3.875118159867E+00
 -3.829167813337E+00 -3.783762346565E+00 -3.738895297896E+00 -3.694560282322E+00
 -3.650750990572E+00 -3.607461188210E+00 -3.564684714749E+00 -3.522415482777E+00
 -3.480647477081E+00 -3.439374753799E+00 -3.398591439568E+00 -3.358291730691E+00
 -3.318469892307E+00 -3.279120257574E+00 -3.240237226866E+00 -3.201815266971E+00
 -3.163848910304E+00 -3.126332754131E+00 -3.089261459794E+00 -3.052629751956E+00
 -3.016432417846E+00 -2.980664306519E+00 -2.945320328119E+00 -2.910395453159E+00
 -2.875884711800E+00 -2.841783193147E+00 -2.808086044545E+00 -2.774788470893E+00
 -2.741885733959E+00 -2.709373151703E+00 -2.677246097614E+00 -2.645500000048E+00
 -2.614130341580E+00 -2.583132658358E+00 -2.552502539469E+00 -2.522235626312E+00
 -2.492327611972E+00 -2.462774240615E+00 -2.433571306874E+00 -2.404714655257E+00
 -2.376200179551E+00 -2.348023822237E+00 -2.320181573917E+00 -2.292669472738E+00
 -2.265483603832E+00 -2.238620098754E+00 -2.212075134938E+00 -2.185844935144E+00
 -2.159925766931E+00 -2.134313942115E+00 -2.109005816251E+00 -2.083997788112E+00
 -2.059286299177E+00 -2.034867833121E+00 -2.010738915322E+00 -1.986896112359E+00
</data>
</radfunc>
</slps>
<slps n="2" l="p" rc="1.70576203900" eref="-0.497365824933">
<radfunc>
<data npts="256">
 -1.917638084810E+01 -1.917601769094E+01 -1.917493217585E+01 -1.917312145776E+01
 -1.917060454467E+01 -1.916729612752E+01 -1.916308129951E+01 -1.915825725372E+01
 -1.915283598326E+01 -1.914651762430E+01 -1.913940036373E+01 -1.913166971677E+01
 -1.912233385743E+01 -1.911259134996E+01 -1.910110832525E+01 -1.908965023781E+01
 -1.907646749387E+01 -1.906398215927E+01 -1.904995735387E+01 -1.903420779692E+01
 -1.901652675638E+01 -1.900083718307E+01 -1.898363428346E+01 -1.896477612838E+01
 -1.894410792414E+01 -1.892146084588E+01 -1.889665074650E+01 -1.887650350748E+01
 -1.885493548548E+01 -1.883184900786E+01 -1.880713972539E+01 -1.878069611507E+01
 -1.875239893655E+01 -1.872212063732E+01 -1.868972470131E+01 -1.865506493523E+01
 -1.861798468678E+01 -1.857831598857E+01 -1.855034369954E+01 -1.852108453286E+01
 -1.849047909218E+01 -1.845846506274E+01 -1.842497704932E+01 -1.838994640534E+01
 -1.835330105245E+01 -1.831496529091E+01 -1.827485960019E+01 -1.823290043007E+01
 -1.818899998212E+01 -1.814306598176E+01 -1.809500144120E+01 -1.804470441359E+01
 -1.799206773908E+01 -1.793697878358E+01 -1.787931917107E+01 -1.781896451093E+01
 -1.775578412177E+01 -1.768964075357E+01 -1.762039031053E+01 -1.754788157722E+01
 -1.747195595124E+01 -1.739244718606E+01 -1.730918114832E+01 -1.722197559467E+01
 -1.713063997369E+01 -1.703497525967E+01 -1.693477382570E+01 -1.688290458285E+01
 -1.682981936467E+01 -1.677548977299E+01 -1.671988686816E+01 -1.666298117237E+01
 -1.660474267434E+01 -1.654514083549E+01 -1.648414459783E+01 -1.642172239349E+01
 -1.635784215625E+01 -1.629247133509E+01 -1.622557691001E+01 -1.615712541023E+01
 -1.608708293495E+01 -1.601541517700E+01 -1.594208744946E+01 -1.586706471549E+01
 -1.579031162179E+01 -1.571179253571E+01 -1.563147158654E+01 -1.554931271108E+01
 -1.546527970408E+01 -1.537933627360E+01 -1.529144610201E+01 -1.520157291278E+01
 -1.510968054366E+01 -1.501573302681E+01 -1.491969467610E+01 -1.482153018258E+01
 -1.472120471832E+01 -1.461868404957E+01 -1.451393465979E+01 -1.440692388332E+01
 -1.429762005056E+01 -1.418599264544E+01 -1.407201247610E+01 -1.395565185983E+01
 -1.383688482320E+01 -1.371568731851E+01 -1.359203745765E+01 -1.346591576465E+01
 -1.333730544799E+01 -1.320619269407E+01 -1.307256698313E+01 -1.293642142872E+01
 -1.279775314235E+01 -1.265656362419E+01 -1.251285918142E+01 -1.236665137503E+01
 -1.221795749625E+01 -1.206680107332E+01 -1.191321240927E+01 -1.175722915084E+01
 -1.159889688859E+01 -1.143826978747E+01 -1.127541124680E+01 -1.111039458771E+01
 -1.094330376544E+01 -1.077423410280E+01 -1.060329303996E+01 -1.043060089461E+01
 -1.025629162478E+01 -1.008051358498E+01 -9.903430264777E+00 -9.725220996184E+00
 -9.546081614633E+00 -9.366225055377E+00 -9.185881864837E+00 -9.005300603590E+00
 -8.824748115038E+00 -8.644509631083E+00 -8.464888683640E+00 -8.286206788533E+00
 -8.108802866557E+00 -7.933032365273E+00 -7.759266044762E+00 -7.587888391237E+00
 -7.419295624420E+00 -7.253893268137E+00 -7.092093258863E+00 -6.934310574319E+00
 -6.780959373665E+00 -6.632448652574E+00 -6.489177430485E+00 -6.351529503400E+00
 -6.219867813572E+00 -6.094528506714E+00 -5.975814767388E+00 -5.863990543164E+00
 -5.759274286846E+00 -5.661832862507E+00 -5.571775773913E+00 -5.489149881852E+00
 -5.413934778793E+00 -5.346038984068E+00 -5.285297097853E+00 -5.231468002837E+00
 -5.184234220534E+00 -5.143202620579E+00 -5.107906416037E+00 -5.077808422709E+00
 -5.052305513570E+00 -5.030734155509E+00 -5.012376876834E+00 -4.996469484018E+00
 -4.982208828354E+00 -4.968760920459E+00 -4.955269205700E+00 -4.940862848568E+00
 -4.924664930356E+00 -4.905800542877E+00 -4.883404861576E+00 -4.856631403380E+00
 -4.824660816426E+00 -4.786710707520E+00 -4.742047184302E+00 -4.689998965798E+00
 -4.634398397498E+00 -4.579444423570E+00 -4.525142104690E+00 -4.471483712634E+00
 -4.418461610856E+00 -4.366068253391E+00 -4.314296183791E+00 -4.263138034054E+00
 -4.212586523582E+00 -4.162634458137E+00 -4.113274728822E+00 -4.064500311064E+00
 -4.016304263617E+00 -3.968679727570E+00 -3.921619925372E+00 -3.875118159867E+00
 -3.829167813337E+00 -3.783762346565E+00 -3.738895297896E+00 -3.694560282322E+00