<?xml version="1.0" encoding="UTF-8" ?>
<psml version="1.1" energy_unit="hartree" length_unit="bohr"
 uuid="af5a4340-23d3-11e8-5be0-a21bfdfea66a"
 xmlns="http://esl.cecam.org/PSML/ns/1.1">
<provenance creator="ONCVPSP-3.3.0+psml-3.3.0-73 (scalar-relativistic)"
 date="2018-03-09">
<annotation action="semilocal-pseudopotential-generation"
 action-cont="projectors-generation" />
<input-file name="oncvpsp-input">
<![CDATA[# atsym z nc nv iexc psfile
Os 76 10 4 -001012 upf
# n l f
1 0 2.0
2 0 2.0
2 1 6.0
3 0 2.0
3 1 6.0
3 2 10.0
4 0 2.0
4 1 6.0
4 2 10.0
4 3 14.0
5 0 2.0
5 1 6.0
5 2 6.0
6 0 2.0
# lmax
3
# l rc ep ncon nbas qcut
0 1.5 0.0 4 8 8.2
1 1.55 0.0 4 8 8.4
2 1.55 0.0 4 8 8.4
3 2.25 0.5 4 8 6.8
# lloc lpopt rc5 dvloc0
4 5 1.5 0.0
# l nproj debl
0 2 1.1
1 2 2.0
2 2 1.5
3 2 3.0
# icmod fcfact rcfact
3 5.0 1.4
# epsh1 epsh2 depsh
-12.0 12.0 0.02
# rlmax drl
6.0 0.01
 0
]]>
</input-file>
</provenance>
<pseudo-atom-spec atomic-label="Os" atomic-number="76" z-pseudo="16"
 flavor="Hamann&apos;s oncvpsp" relativity="scalar" spin-dft="no"
 core-corrections="yes">
<annotation pseudo-energy="-92.4599450048" />
<exchange-correlation>
<annotation oncvpsp-xc-code="-1012" oncvpsp-xc-type="libxc-interface" />
<libxc-info number-of-functionals="2">
<functional name="Slater exchange (LDA)" type="exchange" id="1" />
<functional name="Perdew &amp; Wang (LDA)" type="correlation" id="12" />
</libxc-info>
</exchange-correlation>
<valence-configuration total-valence-charge="16">
<shell n="5" l="s" occupation="2" />
<shell n="5" l="p" occupation="6" />
<shell n="5" l="d" occupation="6" />
<shell n="6" l="s" occupation="2" />
</valence-configuration>
</pseudo-atom-spec>
<grid npts="457">
<annotation type="sampled from oncvpsp log grid"
 recipe="r(i:1..N) = r1*exp(a*(i-1)) + r=0; resampled"
 recipe-cont="r1: scale; a: step" scale="0.657894736842E-05"
 step="0.119285708653E-01" delta="0.500000000000E-02" rmax="44.2661643415" />
<grid-data>
  0.000000000000E+00  5.054775556102E-03  1.009651748877E-02  1.514638622830E-02
  2.016700133758E-02  2.529711905544E-02  3.061676245946E-02  3.575245982319E-02
  4.076538655265E-02  4.593002585167E-02  5.113535818743E-02  5.625555354481E-02
  6.188843525909E-02  6.727800270248E-02  7.313692176392E-02  7.856330635186E-02
  8.439230085264E-02  8.957883088678E-02  9.508411148849E-02  1.009277322338E-01
  1.071304866227E-01  1.123660534284E-01  1.178574872674E-01  1.236172926000E-01
  1.296585849917E-01  1.359951209775E-01  1.426413293872E-01  1.478382847836E-01
  1.532245846394E-01  1.588071274791E-01  1.645930631661E-01  1.705898020602E-01
  1.768050245080E-01  1.832466906800E-01  1.899230507651E-01  1.968426555376E-01
  2.040143673083E-01  2.114473712749E-01  2.165525566070E-01  2.217810015337E-01
  2.271356820347E-01  2.326196459418E-01  2.382360146734E-01  2.439879850116E-01
  2.498788309218E-01  2.559119054155E-01  2.620906424599E-01  2.684185589314E-01
  2.748992566183E-01  2.815364242701E-01  2.883338396977E-01  2.952953719233E-01
  3.024249833830E-01  3.097267321818E-01  3.172047744036E-01  3.248633664768E-01
  3.327068675970E-01  3.407397422083E-01  3.489665625442E-01  3.573920112303E-01
  3.660208839494E-01  3.748580921715E-01  3.839086659489E-01  3.931777567795E-01
  4.026706405392E-01  4.123927204844E-01  4.223495303278E-01  4.274177246917E-01
  4.325467373880E-01  4.377372982367E-01  4.429901458155E-01  4.483060275653E-01
  4.536856998961E-01  4.591299282948E-01  4.646394874344E-01  4.702151612836E-01
  4.758577432190E-01  4.815680361376E-01  4.873468525712E-01  4.931950148021E-01
  4.991133549797E-01  5.051027152395E-01  5.111639478224E-01  5.172979151962E-01
  5.235054901786E-01  5.297875560607E-01  5.361450067335E-01  5.425787468143E-01
  5.490896917760E-01  5.556787680773E-01  5.623469132943E-01  5.690950762538E-01
  5.759242171688E-01  5.828353077749E-01  5.898293314682E-01  5.969072834458E-01
  6.040701708471E-01  6.113190128973E-01  6.186548410521E-01  6.260786991447E-01
  6.335916435344E-01  6.411947432568E-01  6.488890801759E-01  6.566757491380E-01
  6.645558581277E-01  6.725305284252E-01  6.806008947663E-01  6.887681055035E-01
  6.970333227696E-01  7.053977226428E-01  7.138624953145E-01  7.224288452583E-01
  7.310979914014E-01  7.398711672982E-01  7.487496213058E-01  7.577346167615E-01
  7.668274321626E-01  7.760293613485E-01  7.853417136847E-01  7.947658142489E-01
  8.043030040199E-01  8.139546400682E-01  8.237220957490E-01  8.336067608980E-01
  8.436100420288E-01  8.537333625331E-01  8.639781628835E-01  8.743459008381E-01
  8.848380516482E-01  8.954561082679E-01  9.062015815671E-01  9.170760005460E-01
  9.280809125525E-01  9.392178835031E-01  9.504884981052E-01  9.618943600824E-01
  9.734370924034E-01  9.851183375123E-01  9.969397575624E-01  1.008903034653E+00
  1.021009871069E+00  1.033261989522E+00  1.045661133396E+00  1.058209066997E+00
  1.070907575801E+00  1.083758466710E+00  1.096763568311E+00  1.109924731131E+00
  1.123243827904E+00  1.136722753839E+00  1.150363426885E+00  1.164167788008E+00
  1.178137801464E+00  1.192275455081E+00  1.206582760542E+00  1.221061753669E+00
  1.235714494713E+00  1.250543068650E+00  1.265549585473E+00  1.280736180499E+00
  1.296105014665E+00  1.311658274841E+00  1.327398174139E+00  1.343326952229E+00
  1.359446875655E+00  1.375760238163E+00  1.392269361021E+00  1.408976593354E+00
  1.425884312474E+00  1.442994924223E+00  1.460310863314E+00  1.477834593674E+00
  1.495568608798E+00  1.513515432104E+00  1.531677617289E+00  1.550057748696E+00
  1.568658441681E+00  1.587482342981E+00  1.606532131097E+00  1.625810516670E+00
  1.645320242870E+00  1.665064085784E+00  1.685044854814E+00  1.705265393071E+00
  1.725728577788E+00  1.746437320722E+00  1.767394568570E+00  1.788603303393E+00
  1.810066543034E+00  1.831787341550E+00  1.853768789649E+00  1.876014015125E+00
  1.898526183306E+00  1.921308497506E+00  1.944364199476E+00  1.967696569870E+00
  1.991308928708E+00  2.015204635853E+00  2.039387091483E+00  2.063859736581E+00
  2.088626053420E+00  2.113689566061E+00  2.139053840853E+00  2.164722486944E+00
  2.190699156787E+00  2.216987546668E+00  2.243591397228E+00  2.270514493995E+00
  2.297760667923E+00  2.325333795938E+00  2.353237801489E+00  2.381476655107E+00
  2.410054374969E+00  2.438975027468E+00  2.468242727798E+00  2.497861640531E+00
  2.527835980218E+00  2.558170011980E+00  2.588868052124E+00  2.619934468750E+00
  2.651373682375E+00  2.683190166563E+00  2.715388448562E+00  2.747973109945E+00
  2.780948787264E+00  2.814320172711E+00  2.848092014784E+00  2.882269118961E+00
  2.916856348389E+00  2.951858624569E+00  2.987280928064E+00  3.023128299201E+00
  3.059405838791E+00  3.096118708857E+00  3.133272133363E+00  3.170871398963E+00
  3.208921855751E+00  3.247428918020E+00  3.286398065036E+00  3.325834841817E+00
  3.365744859918E+00  3.406133798237E+00  3.447007403816E+00  3.488371492662E+00
  3.530231950574E+00  3.572594733981E+00  3.615465870789E+00  3.658851461238E+00
  3.702757678773E+00  3.747190770918E+00  3.792157060169E+00  3.837662944891E+00
  3.883714900230E+00  3.930319479033E+00  3.977483312781E+00  4.025213112535E+00
  4.073515669885E+00  4.122397857924E+00  4.171866632219E+00  4.221929031805E+00
  4.272592180187E+00  4.323863286349E+00  4.375749645785E+00  4.428258641535E+00
  4.481397745233E+00  4.535174518176E+00  4.589596612394E+00  4.644671771743E+00
  4.700407833004E+00  4.756812727000E+00  4.813894479724E+00  4.871661213481E+00
  4.930121148042E+00  4.989282601819E+00  5.049153993041E+00  5.109743840957E+00
  5.171060767049E+00  5.233113496253E+00  5.295910858208E+00  5.359461788507E+00
  5.423775329969E+00  5.488860633928E+00  5.554726961536E+00  5.621383685074E+00
  5.688840289295E+00  5.757106372766E+00  5.826191649240E+00  5.896105949031E+00
  5.966859220419E+00  6.038461531064E+00  6.110923069437E+00  6.184254146270E+00
  6.258465196025E+00  6.333566778377E+00  6.409569579718E+00  6.486484414675E+00
  6.564322227651E+00  6.643094094383E+00  6.722811223515E+00  6.803484958197E+00
  6.885126777696E+00  6.967748299028E+00  7.051361278616E+00  7.135977613960E+00
  7.221609345327E+00  7.308268657471E+00  7.395967881361E+00  7.484719495937E+00
  7.574536129888E+00  7.665430563447E+00  7.757415730208E+00  7.850504718971E+00
  7.944710775599E+00  8.040047304906E+00  8.136527872565E+00  8.234166207035E+00
  8.332976201520E+00  8.432971915938E+00  8.534167578929E+00  8.636577589877E+00
  8.740216520955E+00  8.845099119206E+00  8.951240308637E+00  9.058655192341E+00
  9.167359054649E+00  9.277367363304E+00  9.388695771664E+00  9.501360120924E+00
  9.615376442375E+00  9.730760959684E+00  9.847530091200E+00  9.965700452294E+00
  1.008528885772E+01  1.020631232401E+01  1.032878807190E+01  1.045273352877E+01
  1.057816633111E+01  1.070510432708E+01  1.083356557901E+01  1.096356836596E+01
  1.109513118635E+01  1.122827276058E+01  1.136301203371E+01  1.149936817812E+01
  1.163736059625E+01  1.177700892341E+01  1.191833303049E+01  1.206135302686E+01
  1.220608926318E+01  1.235256233434E+01  1.250079308235E+01  1.265080259934E+01
  1.280261223053E+01  1.295624357729E+01  1.311171850022E+01  1.326905912222E+01
  1.342828783169E+01  1.358942728567E+01  1.375250041310E+01  1.391753041806E+01
  1.408454078307E+01  1.425355527247E+01  1.442459793574E+01  1.459769311097E+01
  1.477286542830E+01  1.495013981344E+01  1.512954149120E+01  1.531109598910E+01
  1.549482914097E+01  1.568076709066E+01  1.586893629574E+01  1.605936353129E+01
  1.625207589367E+01  1.644710080439E+01  1.664446601405E+01  1.684419960621E+01
  1.704633000149E+01  1.725088596151E+01  1.745789659304E+01  1.766739135216E+01
  1.787940004839E+01  1.809395284897E+01  1.831108028316E+01  1.853081324655E+01
  1.875318300551E+01  1.897822120158E+01  1.920595985600E+01  1.943643137427E+01
  1.966966855076E+01  1.990570457337E+01  2.014457302825E+01  2.038630790459E+01
  2.063094359944E+01  2.087851492264E+01  2.112905710171E+01  2.138260578693E+01
  2.163919705637E+01  2.189886742105E+01  2.216165383010E+01  2.242759367606E+01
  2.269672480018E+01  2.296908549778E+01  2.324471452375E+01  2.352365109804E+01
  2.380593491121E+01  2.409160613015E+01  2.438070540371E+01  2.467327386855E+01
  2.496935315498E+01  2.526898539284E+01  2.557221321755E+01  2.587907977616E+01
  2.618962873347E+01  2.650390427828E+01  2.682195112962E+01  2.714381454317E+01
  2.746954031769E+01  2.779917480150E+01  2.813276489912E+01  2.847035807791E+01
  2.881200237484E+01  2.915774640334E+01  2.950763936018E+01  2.986173103250E+01
  3.022007180489E+01  3.058271266655E+01  3.094970521855E+01  3.132110168117E+01
  3.169695490135E+01  3.207731836016E+01  3.246224618049E+01  3.285179313465E+01
  3.324601465227E+01  3.364496682810E+01  3.404870643003E+01  3.445729090719E+01
  3.487077839808E+01  3.528922773886E+01  3.571269847172E+01  3.614125085338E+01
  3.657494586362E+01  3.701384521399E+01  3.745801135655E+01  3.790750749283E+01
  3.836239758275E+01  3.882274635374E+01  3.928861930999E+01  3.976008274171E+01
  4.023720373461E+01  4.072005017942E+01  4.120869078157E+01  4.170319507095E+01
  4.220363341180E+01  4.271007701275E+01  4.322259793690E+01  4.374126911214E+01
  4.426616434149E+01
</grid-data>
</grid>
<valence-charge total-charge="16" is-unscreening-charge="yes"
 rescaled-to-z-pseudo="no">
<radfunc>
<data npts="457">
  9.137761206476E-01  9.146377053384E-01  9.172138199441E-01  9.215135041377E-01
  9.274953639743E-01  9.353676486024E-01  9.454119259084E-01  9.569288340940E-01
  9.698979120841E-01  9.850480178514E-01  1.002158442691E+00  1.020796702930E+00
  1.043378175943E+00  1.067027579051E+00  1.095011152350E+00  1.123050042720E+00
  1.155450541283E+00  1.186274040612E+00  1.221054428401E+00  1.260305478151E+00
  1.304608787830E+00  1.344128730362E+00  1.387678666290E+00  1.435674766259E+00
  1.488576676621E+00  1.546891982907E+00  1.611181060588E+00  1.663687827607E+00
  1.720185501802E+00  1.780979730872E+00  1.846399157313E+00  1.916796920353E+00
  1.992552184516E+00  2.074071673166E+00  2.161791178351E+00  2.256177009543E+00
  2.357727333309E+00  2.466973343174E+00  2.544357063721E+00  2.625587518613E+00
  2.710847533673E+00  2.800326777145E+00  2.894221685369E+00  2.992735321487E+00
  3.096077155666E+00  3.204462753895E+00  3.318113360872E+00  3.437255360885E+00
  3.562119598838E+00  3.692940541720E+00  3.829955258950E+00  3.973402198018E+00
  4.123519729903E+00  4.280544436758E+00  4.444709112505E+00  4.616240445229E+00
  4.795356348751E+00  4.982262909641E+00  5.177150915174E+00  5.380191927682E+00
  5.591533871445E+00  5.811296099929E+00  6.039563914126E+00  6.276382507110E+00
  6.521750316147E+00  6.775611771936E+00  7.037849445341E+00  7.172053686386E+00
  7.308275605503E+00  7.446479274977E+00  7.586623219975E+00  7.728660110597E+00
  7.872536447847E+00  8.018192244376E+00  8.165560700987E+00  8.314567880032E+00
  8.465132376971E+00  8.617164991524E+00  8.770568399996E+00  8.925236830544E+00
  9.081055743327E+00  9.237901517653E+00  9.395641148449E+00  9.554131954574E+00
  9.713221301681E+00  9.872746342563E+00  1.003253377810E+01  1.019239964218E+01
  1.035214911404E+01  1.051157636189E+01  1.067046442170E+01  1.082858511513E+01
  1.098569901110E+01  1.114155543525E+01  1.129589253184E+01  1.144843738281E+01
  1.159890618859E+01  1.174700451545E+01  1.189242761412E+01  1.203486081415E+01
  1.217397999883E+01  1.230945216473E+01  1.244093607008E+01  1.256808297592E+01
  1.269053748312E+01  1.280793846849E+01  1.291992012219E+01  1.302611308823E+01
  1.312614570903E+01  1.321964537421E+01  1.330623997281E+01  1.338555944713E+01
  1.345723744532E+01  1.352091306849E+01  1.357623270698E+01  1.362285195902E+01
  1.366043762347E+01  1.368866975699E+01  1.370724378444E+01  1.371587264971E+01
  1.371428899278E+01  1.370224733716E+01  1.367952627066E+01  1.364593060081E+01
  1.360129346527E+01  1.354547837631E+01  1.347838117769E+01  1.339993189148E+01
  1.331009643192E+01  1.320887816332E+01  1.309631927918E+01  1.297250197993E+01
  1.283754942783E+01  1.269162645860E+01  1.253494003070E+01  1.236773939548E+01
  1.219031597332E+01  1.200300292367E+01  1.180617439976E+01  1.160024448188E+01
  1.138566578674E+01  1.116292775369E+01  1.093255461265E+01  1.069510304206E+01
  1.045115952915E+01  1.020133744843E+01  9.946273877619E+00  9.686626174018E+00
  9.423068336788E+00  9.156287183825E+00  8.886978373951E+00  8.615842307301E+00
  8.343579938323E+00  8.070888537026E+00  7.798457434957E+00  7.526963792917E+00
  7.257068427587E+00  6.989411734216E+00  6.724609742253E+00  6.463250340340E+00
  6.205889706508E+00  5.953048978703E+00  5.705211199876E+00  5.462818570899E+00
  5.226270043290E+00  4.995919282265E+00  4.772073028729E+00  4.554989886533E+00
  4.344879558407E+00  4.141902550500E+00  3.946170361200E+00  3.757746164971E+00
  3.576645996232E+00  3.402840431949E+00  3.236256984203E+00  3.076783760910E+00
  2.924275132774E+00  2.778560926839E+00  2.639458967743E+00  2.506777507565E+00
  2.380316742389E+00  2.259870747184E+00  2.145229092927E+00  2.036178362588E+00
  1.932503540373E+00  1.833989277603E+00  1.740421038089E+00  1.651586126368E+00
  1.567274602786E+00  1.487280089988E+00  1.411400475733E+00  1.339438517371E+00
  1.271202353533E+00  1.206505928794E+00  1.145169337182E+00  1.087019090466E+00
  1.031888317136E+00  9.796168979538E-01  9.300515438272E-01  8.830458216346E-01
  8.384601334795E-01  7.961616544275E-01  7.560242341051E-01  7.179282665341E-01
  6.817605328871E-01  6.474140213387E-01  6.147877279442E-01  5.837864421902E-01
  5.543205205781E-01  5.263056513136E-01  4.996626128994E-01  4.743170291550E-01
  4.501991229244E-01  4.272434704795E-01  4.053887583861E-01  3.845775443704E-01
  3.647560235079E-01  3.458738008551E-01  3.278836714561E-01  3.107414084830E-01
  2.944055601083E-01  2.788372555627E-01  2.640000206984E-01  2.498596032603E-01
  2.363838079604E-01  2.235423413563E-01  2.113066664533E-01  1.996498668771E-01
  1.885465204037E-01  1.779725815794E-01  1.679052731243E-01  1.583229857744E-01
  1.492051861924E-01  1.405323325557E-01  1.322857974164E-01  1.244477974191E-01
  1.170013294563E-01  1.099301128459E-01  1.032185371127E-01  9.685161496998E-02
  9.081494010063E-02  8.509464935413E-02  7.967738898684E-02  7.455028458966E-02
  6.970091436327E-02  6.511728541881E-02  6.078781279961E-02  5.670130093793E-02
  5.284692728044E-02  4.921422782675E-02  4.579308436246E-02  4.257371316065E-02
  3.954665496181E-02  3.670276605142E-02  3.403321027164E-02  3.152945181888E-02
  2.918324869357E-02  2.698664668232E-02  2.493197376562E-02  2.301183485641E-02
  2.121910678644E-02  1.954693346776E-02  1.798872116661E-02  1.653813383633E-02
  1.518908846378E-02  1.393575039212E-02  1.277252858915E-02  1.169407083740E-02
  1.069525882735E-02  9.771203140947E-03  8.917238116713E-03  8.128916592279E-03
  7.402004523602E-03  6.732475483470E-03  6.116505044630E-03  5.550465055326E-03
  5.030917817031E-03  4.554610175907E-03  4.118467540867E-03  3.719587842269E-03
  3.355235446040E-03  3.022835038683E-03  2.719965498926E-03  2.444353771958E-03
  2.193868762166E-03  1.966515260072E-03  1.760427918830E-03  1.573865295170E-03
  1.405203969041E-03  1.252932755531E-03  1.115647021824E-03  9.920431211009E-04
  8.809129543372E-04  7.811386700046E-04  6.916875106384E-04  6.116068142130E-04
  5.400191772099E-04  4.761177852198E-04  4.191619158562E-04  3.684726177502E-04
  3.234285683856E-04  2.834621125556E-04  2.480554822989E-04  2.167371982791E-04
  1.890786517384E-04  1.646908653711E-04  1.432214307341E-04  1.243516191482E-04
  1.077936624393E-04  9.328819932435E-05  8.060188277246E-05  6.952514325452E-05
  5.987010244211E-05  5.146863162496E-05  4.417054888279E-05  3.784194887010E-05
  3.236365894983E-05  2.762981533826E-05  2.354655289811E-05  2.003080223420E-05
  1.700918780321E-05  1.441702084232E-05  1.219738104636E-05  1.030028107621E-05
  8.681908158642E-06  7.303937235473E-06  6.132910334928E-06  5.139677066312E-06
  4.298891377824E-06  3.588559963243E-06  2.989637953647E-06  2.485667782631E-06
  2.062457365440E-06  1.707793981911E-06  1.411190498304E-06  1.163660802439E-06
  9.575215586910E-07  7.862176131893E-07  6.441685941614E-07  5.266344569786E-07
  4.295979176645E-07  3.496619019920E-07  2.839603096708E-07  2.300805544314E-07
  1.859964911174E-07  1.500104803619E-07  1.207034703100E-07  9.689209348397E-08
  7.759188566656E-08  6.198583303699E-08  4.939754421802E-08  3.926842587601E-08
  3.113831458411E-08  2.462908433449E-08  1.943080889707E-08  1.529011168841E-08
  1.200038344451E-08  9.393590275973E-09  7.333432097006E-09  5.709644409272E-09
  4.433265413754E-09  3.432715817322E-09  2.650560868020E-09  2.040843439850E-09
  1.566893712442E-09  1.199535445726E-09  9.156213011396E-10  6.968403510216E-10
  5.287500652623E-10  3.999928655646E-10  3.016639686646E-10  2.268028572609E-10
  1.699854601299E-10  1.269981136453E-10  9.457772351056E-11  7.020534237460E-11
  5.194270841789E-11  3.830322341732E-11  2.815044797299E-11  2.061850968139E-11
  1.504990265128E-11  1.094704280623E-11  7.934666006670E-12  5.730743191194E-12
  4.124062134330E-12  2.957008915817E-12  2.112390420555E-12  1.503385993126E-12
  1.065913255522E-12  7.528495532237E-13  5.296744470296E-13  3.711958997977E-13
  2.353035108224E-13  1.636955951706E-13  1.134168249653E-13  7.825800632370E-14
  5.377364925092E-14  3.679408811412E-14  2.506873856211E-14  1.700633187267E-14
  1.148656316573E-14  7.724104223128E-15  5.170847254717E-15  3.445938906069E-15
  2.285925908976E-15  1.509390394729E-15  9.919772706415E-16  6.488407611860E-16
  4.223631822006E-16  2.736027538756E-16  1.763664658650E-16  1.131219918639E-16
  7.219175390373E-17  4.583649291356E-17  2.895288257737E-17  1.819290100920E-17
  1.137141677030E-17  7.069718062021E-18  4.371561571683E-18  2.688374980182E-18
  1.644118975938E-18  9.998569192084E-19  6.046087172805E-19  3.635073937398E-19
  2.172823218075E-19  1.291152319735E-19  7.626789906324E-20  4.478021831591E-20
  2.613239880727E-20  1.515615861697E-20  8.735415354708E-21  5.002993052795E-21
  2.847050246318E-21  1.609703247128E-21  9.041658760519E-22  5.045076152278E-22
  2.796210890446E-22  1.539286548234E-22  8.415511015482E-23  4.568959582129E-23
  0.000000000000E+00  0.000000000000E+00  0.000000000000E+00  0.000000000000E+00
  0.000000000000E+00  0.000000000000E+00  0.000000000000E+00  0.000000000000E+00
  0.000000000000E+00  0.000000000000E+00  0.000000000000E+00  0.000000000000E+00
  0.000000000000E+00  0.000000000000E+00  0.000000000000E+00  0.000000000000E+00
  0.000000000000E+00
</data>
</radfunc>
</valence-charge>
<pseudocore-charge matching-radius="0.874345900838"
 number-of-continuous-derivatives="4">
<annotation model-charge-form="Teter function with specified parameters" />
<radfunc>
<data npts="290">
  6.908479898186E+01  6.908107705999E+01  6.906995077705E+01  6.905138762259E+01
  6.902557702816E+01  6.899163625066E+01  6.894837488083E+01  6.889883094087E+01
  6.884311649476E+01  6.877813445932E+01  6.870487540505E+01  6.862523197113E+01
  6.852895623044E+01  6.842838029245E+01  6.830970243980E+01  6.819114479893E+01
  6.805458121725E+01  6.792509272615E+01  6.777947551320E+01  6.761576001067E+01
  6.743174672532E+01  6.726828219471E+01  6.708887856219E+01  6.689202875909E+01
  6.667609311115E+01  6.643928977737E+01  6.617968497051E+01  6.596876361944E+01
  6.574289417777E+01  6.550107304481E+01  6.524223781402E+01  6.496526518457E+01
  6.466896903647E+01  6.435209872358E+01  6.401333764705E+01  6.365130218211E+01
  6.326454104168E+01  6.285153517256E+01  6.256083690582E+01  6.225728429352E+01
  6.194037819761E+01  6.160960706369E+01  6.126444737403E+01  6.090436420862E+01
  6.052881192531E+01  6.013723497081E+01  5.972906883507E+01  5.930374116208E+01
  5.886067303133E+01  5.839928042423E+01  5.791897589093E+01  5.741917043342E+01
  5.689927562109E+01  5.635870595568E+01  5.579688150258E+01  5.521323080563E+01
  5.460719410251E+01  5.397822685743E+01  5.332580362737E+01  5.264942227698E+01
  5.194860855617E+01  5.122292105255E+01  5.047195652862E+01  4.969535565091E+01
  4.889280911459E+01  4.806406416311E+01  4.720893149722E+01  4.677142975281E+01
  4.632729256210E+01  4.587651741419E+01  4.541910719405E+01  4.495507043920E+01
  4.448442160085E+01  4.400718130888E+01  4.352337664050E+01  4.303304139200E+01
  4.253621635300E+01  4.203294958287E+01  4.152329668842E+01  4.100732110243E+01
  4.048509436205E+01  3.995669638652E+01  3.942221575311E+01  3.888174997055E+01
  3.833540574882E+01  3.778329926429E+01  3.722555641908E+01  3.666231309343E+01
  3.609371538973E+01  3.551991986699E+01  3.494109376417E+01  3.435741521095E+01
  3.376907342436E+01  3.317626888954E+01  3.257921352298E+01  3.197813081646E+01
  3.137325595965E+01  3.076483593970E+01  3.015312961561E+01  2.953840776546E+01
  2.892095310435E+01  2.830106027092E+01  2.767903578037E+01  2.705519794158E+01
  2.642987673639E+01  2.580341365863E+01  2.517616151079E+01  2.454848415614E+01
  2.392075622418E+01  2.329336276738E+01  2.266669886709E+01  2.204116918691E+01
  2.141718747161E+01  2.079517598995E+01  2.017556492010E+01  1.955879167610E+01
  1.894530017461E+01  1.833554004088E+01  1.772996575359E+01  1.712903572817E+01
  1.653321133884E+01  1.594295587980E+01  1.535873346642E+01  1.478100787774E+01
  1.421024134213E+01  1.364689326824E+01  1.309141892421E+01  1.254426806831E+01
  1.200588353499E+01  1.147669978094E+01  1.095714139612E+01  1.044762158575E+01
  9.948540629433E+00  9.460284324699E+00  8.983222422537E+00  8.517707063346E+00
  8.064071222277E+00  7.622627173558E+00  7.193664983991E+00  6.777451046308E+00
  6.374226663590E+00  5.984206696355E+00  5.607578284268E+00  5.244499654694E+00
  4.895099030486E+00  4.559473649436E+00  4.237688907768E+00  3.929777639853E+00
  3.635739545979E+00  3.355540779506E+00  3.089113704102E+00  2.836356830888E+00
  2.597134944342E+00  2.371279424608E+00  2.158588772468E+00  1.958829341704E+00
  1.771736281807E+00  1.597014692102E+00  1.434340986270E+00  1.283364464028E+00
  1.143709084397E+00  1.014975432503E+00  8.967428693539E-01  7.885718514461E-01
  6.900064044775E-01  6.005767328862E-01  5.198019444686E-01  4.471928669798E-01
  3.822549314476E-01  3.244910949887E-01  2.734047742545E-01  2.285027593079E-01
  1.892980767937E-01  1.553127707605E-01  1.260805694718E-01  1.011494070350E-01
  8.008376972545E-02  6.246683849562E-02  4.790240135125E-02  3.601651205211E-02
  2.645887492263E-02  1.890393941882E-02  1.305169243607E-02  8.628141096118E-03
  5.385483838787E-03  3.101972967249E-03  1.581477244202E-03  6.527585845759E-04
  1.684822044689E-04  3.984623935451E-06  5.582853835487E-05  2.401776262139E-04
  4.910277133685E-04  7.583332402423E-04  1.006069571293E-03  1.210272260676E-03
  1.357093887696E-03  1.440917476473E-03  1.462562829162E-03  1.427618383094E-03
  1.344926542231E-03  1.225244965352E-03  1.080100188282E-03  9.208434198842E-04
  7.579116130907E-04  6.002902237033E-04  4.551676902339E-04  3.277658541754E-04
  2.213255326381E-04  1.372224666962E-04  7.518607040397E-05  3.359191605089E-05
  9.798767573077E-06  5.022042081198E-07  2.079376746895E-06  1.090305472402E-05
  2.360763518614E-05  3.729491819875E-05  4.967289700977E-05  5.912622651571E-05
  6.472208730897E-05  6.615954224490E-05  6.367392232080E-05  5.791007979508E-05
  4.977939390509E-05  4.031518852525E-05  3.053980128882E-05  2.135410504990E-05
  1.345708276172E-05  7.299415511877E-06  3.071314543690E-06  7.213676068481E-07
  3.018393865397E-10  5.215488783958E-07  1.829500321735E-06  3.466419516956E-06
  5.030067203455E-06  6.216029439083E-06  6.841238544061E-06  6.847920914047E-06
  6.289836261837E-06  5.304859674742E-06  4.079434375579E-06  2.811023958781E-06
  1.674377466898E-06  7.962794929867E-07  2.416998472327E-07  1.218060053985E-08
  0.000000000000E+00  0.000000000000E+00  0.000000000000E+00  0.000000000000E+00
  0.000000000000E+00  0.000000000000E+00  0.000000000000E+00  0.000000000000E+00
  0.000000000000E+00  0.000000000000E+00  0.000000000000E+00  0.000000000000E+00
  0.000000000000E+00  0.000000000000E+00  0.000000000000E+00  0.000000000000E+00
  0.000000000000E+00  0.000000000000E+00  0.000000000000E+00  0.000000000000E+00
  0.000000000000E+00  0.000000000000E+00  0.000000000000E+00  0.000000000000E+00
  0.000000000000E+00  0.000000000000E+00  0.000000000000E+00  0.000000000000E+00
  0.000000000000E+00  0.000000000000E+00  0.000000000000E+00  0.000000000000E+00
  0.000000000000E+00  0.000000000000E+00  0.000000000000E+00  0.000000000000E+00
  0.000000000000E+00  0.000000000000E+00  0.000000000000E+00  0.000000000000E+00
  0.000000000000E+00  0.000000000000E+00
</data>
</radfunc>
</pseudocore-charge>
<semilocal-potentials set="scalar_relativistic">
<slps n="5" l="s" rc="1.51351543210" eref="-3.37497438328">
<radfunc>
<data npts="290">
  3.403932718551E+00  3.398413369684E+00  3.381925155912E+00  3.354453680604E+00
  3.316334618669E+00  3.266345637458E+00  3.202854178486E+00  3.130450490359E+00
  3.049419725429E+00  2.955428568183E+00  2.850128935908E+00  2.736442862933E+00
  2.600102194105E+00  2.458927102221E+00  2.293970092071E+00  2.130913253127E+00
  1.945204433034E+00  1.771171114854E+00  1.577807685212E+00  1.363323781475E+00
  1.125851087193E+00  9.180276562098E-01  6.932564816860E-01  4.505327920161E-01
  1.888627435022E-01 -9.272104883291E-02 -3.951415287962E-01 -6.361502054444E-01
 -8.896946950066E-01 -1.156072119089E+00 -1.435539738516E+00 -1.728308396514E+00
 -2.034535727273E+00 -2.354319215719E+00 -2.687689210665E+00 -3.034602009321E+00
 -3.394933145599E+00 -3.768471026904E+00 -4.024686940523E+00 -4.286524873217E+00
 -4.553850517661E+00 -4.826509040676E+00 -5.104324655796E+00 -5.387100293908E+00
 -5.674617379385E+00 -5.966635718231E+00 -6.262893503631E+00 -6.563107443057E+00
 -6.866973009648E+00 -7.174164819020E+00 -7.484337130994E+00 -7.797124473949E+00
 -8.112142387720E+00 -8.428988279095E+00 -8.747242382167E+00 -9.066468814036E+00
 -9.386216714712E+00 -9.706021458560E+00 -1.002540592331E+01 -1.034388180157E+01
 -1.066095093895E+01 -1.097610668229E+01 -1.128883522148E+01 -1.159861690805E+01
 -1.190492753467E+01 -1.220723956004E+01 -1.250502326513E+01 -1.265205113124E+01
 -1.279774782795E+01 -1.294204699138E+01 -1.308488230606E+01 -1.322618753001E+01
 -1.336589651804E+01 -1.350394324334E+01 -1.364026181738E+01 -1.377478650790E+01
 -1.390745175530E+01 -1.403819218719E+01 -1.416694263130E+01 -1.429363812676E+01
 -1.441821393371E+01 -1.454060554151E+01 -1.466074867543E+01 -1.477857930202E+01
 -1.489403363333E+01 -1.500704812995E+01 -1.511755950314E+01 -1.522550471611E+01
 -1.533082098475E+01 -1.543344577775E+01 -1.553331681653E+01 -1.563037207504E+01
 -1.572454977972E+01 -1.581578840976E+01 -1.590402669791E+01 -1.598920363217E+01
 -1.607125845847E+01 -1.615013068469E+01 -1.622576008626E+01 -1.629808671359E+01
 -1.636705090165E+01 -1.643259328193E+01 -1.649465479713E+01 -1.655317671881E+01
 -1.660810066832E+01 -1.665936864129E+01 -1.670692303605E+01 -1.675070668612E+01
 -1.679066289720E+01 -1.682673548892E+01 -1.685886884155E+01 -1.688700794809E+01
 -1.691109847190E+01 -1.693108681019E+01 -1.694692016360E+01 -1.695854661227E+01
 -1.696591519840E+01 -1.696897601575E+01 -1.696768030637E+01 -1.696198056456E+01
 -1.695183064864E+01 -1.693718590050E+01 -1.691800327347E+01 -1.689424146869E+01
 -1.686586108024E+01 -1.683282474971E+01 -1.679509733039E+01 -1.675264606169E+01
 -1.670544075460E+01 -1.665345398874E+01 -1.659666132204E+01 -1.653504151424E+01
 -1.646857676547E+01 -1.639725297164E+01 -1.632105999858E+01 -1.623999197751E+01
 -1.615404762446E+01 -1.606323058736E+01 -1.596754982473E+01 -1.586702002097E+01
 -1.576166204393E+01 -1.565150345146E+01 -1.553657905496E+01 -1.541693154891E+01
 -1.529261221707E+01 -1.516368172743E+01 -1.503021102968E+01 -1.489228237107E+01
 -1.474999044808E+01 -1.460344371368E+01 -1.445276586186E+01 -1.429809751302E+01