<?xml version="1.0" encoding="UTF-8" ?>
<psml version="1.1" energy_unit="hartree" length_unit="bohr"
 uuid="3442fdb0-23d2-11e8-64d5-dc3bb37fdb48"
 xmlns="http://esl.cecam.org/PSML/ns/1.1">
<provenance creator="ONCVPSP-3.3.0+psml-3.3.0-73 (scalar-relativistic)"
 date="2018-03-09">
<annotation action="semilocal-pseudopotential-generation"
 action-cont="projectors-generation" />
<input-file name="oncvpsp-input">
<![CDATA[# atsym z nc nv iexc psfile
P 15 3 2 -001012 upf
# n l f
1 0 2.0
2 0 2.0
2 1 6.0
3 0 2.0
3 1 3.0
# lmax
2
# l rc ep ncon nbas qcut
0 1.45 0.0 4 9 6.2
1 1.55 0.0 4 9 6.6
2 1.7 0.05 4 9 6.6
# lloc lpopt rc5 dvloc0
4 5 1.45 0.0
# l nproj debl
0 2 3.0
1 2 2.5
2 2 2.0
# icmod fcfact rcfact
3 5.0 1.1
# epsh1 epsh2 depsh
-12.0 12.0 0.02
# rlmax drl
6.0 0.01
 0
]]>
</input-file>
</provenance>
<pseudo-atom-spec atomic-label="P" atomic-number="15" z-pseudo="5"
 flavor="Hamann&apos;s oncvpsp" relativity="scalar" spin-dft="no"
 core-corrections="yes">
<annotation pseudo-energy="-6.43399640456" />
<exchange-correlation>
<annotation oncvpsp-xc-code="-1012" oncvpsp-xc-type="libxc-interface" />
<libxc-info number-of-functionals="2">
<functional name="Slater exchange (LDA)" type="exchange" id="1" />
<functional name="Perdew &amp; Wang (LDA)" type="correlation" id="12" />
</libxc-info>
</exchange-correlation>
<valence-configuration total-valence-charge="5">
<shell n="3" l="s" occupation="2" />
<shell n="3" l="p" occupation="3" />
</valence-configuration>
</pseudo-atom-spec>
<grid npts="457">
<annotation type="sampled from oncvpsp log grid"
 recipe="r(i:1..N) = r1*exp(a*(i-1)) + r=0; resampled"
 recipe-cont="r1: scale; a: step" scale="0.333333333333E-04"
 step="0.119285708653E-01" delta="0.500000000000E-02" rmax="44.2837637062" />
<grid-data>
  0.000000000000E+00  5.056785236402E-03  1.010053166746E-02  1.515240813643E-02
  2.017501934448E-02  2.530717669722E-02  3.062893508784E-02  3.576667430480E-02
  4.078159407628E-02  4.594828673528E-02  5.115568860978E-02  5.627791965710E-02
  6.191304089543E-02  6.730475112585E-02  7.316599957938E-02  7.859454159214E-02
  8.442585358759E-02  8.961444568504E-02  9.512191507908E-02  1.009678591341E-01
  1.071730796174E-01  1.124107279825E-01  1.179043451086E-01  1.236664404276E-01
  1.297101347195E-01  1.360491899885E-01  1.426980408012E-01  1.478970624059E-01
  1.532855037496E-01  1.588702660996E-01  1.646585021619E-01  1.706576252426E-01
  1.768753187418E-01  1.833195459948E-01  1.899985604706E-01  1.969209163432E-01
  2.040954794468E-01  2.115314386309E-01  2.166386536853E-01  2.218691773398E-01
  2.272259867575E-01  2.327121309818E-01  2.383307326722E-01  2.440849898819E-01
  2.499781778776E-01  2.560136510042E-01  2.621948445941E-01  2.685252769220E-01
  2.750085512080E-01  2.816483576683E-01  2.884484756159E-01  2.954127756112E-01
  3.025452216655E-01  3.098498734974E-01  3.173308888431E-01  3.249925258234E-01
  3.328391453668E-01  3.408752136926E-01  3.491053048520E-01  3.575341033323E-01
  3.661664067232E-01  3.750071284471E-01  3.840613005563E-01  3.933340765969E-01
  4.028307345423E-01  4.125566797971E-01  4.225174482741E-01  4.275876576534E-01
  4.327187095452E-01  4.379113340598E-01  4.431662700685E-01  4.484842653093E-01
  4.538660764930E-01  4.593124694110E-01  4.648242190439E-01  4.704021096724E-01
  4.760469349885E-01  4.817594982083E-01  4.875406121868E-01  4.933910995331E-01
  4.993117927275E-01  5.053035342402E-01  5.113671766511E-01  5.175035827709E-01
  5.237136257642E-01  5.299981892733E-01  5.363581675446E-01  5.427944655551E-01
  5.493079991418E-01  5.558996951315E-01  5.625704914731E-01  5.693213373708E-01
  5.761531934192E-01  5.830670317402E-01  5.900638361211E-01  5.971446021546E-01
  6.043103373804E-01  6.115620614290E-01  6.189008061661E-01  6.263276158401E-01
  6.338435472302E-01  6.414496697970E-01  6.491470658345E-01  6.569368306246E-01
  6.648200725921E-01  6.727979134632E-01  6.808714884247E-01  6.890419462858E-01
  6.973104496412E-01  7.056781750369E-01  7.141463131374E-01  7.227160688950E-01
  7.313886617218E-01  7.401653256624E-01  7.490473095704E-01  7.580358772852E-01
  7.671323078126E-01  7.763378955064E-01  7.856539502525E-01  7.950817976555E-01
  8.046227792274E-01  8.142782525781E-01  8.240495916090E-01  8.339381867083E-01
  8.439454449488E-01  8.540727902882E-01  8.643216637717E-01  8.746935237370E-01
  8.851898460218E-01  8.958121241741E-01  9.065618696641E-01  9.174406121001E-01
  9.284498994453E-01  9.395912982387E-01  9.508663938175E-01  9.622767905433E-01
  9.738241120299E-01  9.855100013742E-01  9.973361213907E-01  1.009304154847E+00
  1.021415804706E+00  1.033672794362E+00  1.046076867894E+00  1.058629790309E+00
  1.071333347793E+00  1.084189347966E+00  1.097199620142E+00  1.110366015584E+00
  1.123690407771E+00  1.137174692664E+00  1.150820788976E+00  1.164630638444E+00
  1.178606206105E+00  1.192749480578E+00  1.207062474345E+00  1.221547224037E+00
  1.236205790726E+00  1.251040260214E+00  1.266052743337E+00  1.281245376257E+00
  1.296620320772E+00  1.312179764621E+00  1.327925921797E+00  1.343861032858E+00
  1.359987365253E+00  1.376307213636E+00  1.392822900199E+00  1.409536775002E+00
  1.426451216302E+00  1.443568630897E+00  1.460891454468E+00  1.478422151922E+00
  1.496163217745E+00  1.514117176358E+00  1.532286582474E+00  1.550674021464E+00
  1.569282109721E+00  1.588113495038E+00  1.607170856978E+00  1.626456907262E+00
  1.645974390149E+00  1.665726082831E+00  1.685714795825E+00  1.705943373375E+00
  1.726414693855E+00  1.747131670182E+00  1.768097250224E+00  1.789314417227E+00
  1.810786190233E+00  1.832515624516E+00  1.854505812010E+00  1.876759881754E+00
  1.899281000335E+00  1.922072372339E+00  1.945137240808E+00  1.968478887697E+00
  1.992100634350E+00  2.016005841962E+00  2.040197912065E+00  2.064680287010E+00
  2.089456450454E+00  2.114529927860E+00  2.139904286994E+00  2.165583138438E+00
  2.191570136099E+00  2.217868977732E+00  2.244483405465E+00  2.271417206331E+00
  2.298674212807E+00  2.326258303360E+00  2.354173403001E+00  2.382423483837E+00
  2.411012565643E+00  2.439944716430E+00  2.469224053028E+00  2.498854741664E+00
  2.528840998564E+00  2.559187090547E+00  2.589897335633E+00  2.620976103661E+00
  2.652427816905E+00  2.684256950708E+00  2.716468034116E+00  2.749065650526E+00
  2.782054438332E+00  2.815439091592E+00  2.849224360691E+00  2.883415053019E+00
  2.918016033655E+00  2.953032226059E+00  2.988468612772E+00  3.024330236125E+00
  3.060622198959E+00  3.097349665346E+00  3.134517861330E+00  3.172132075666E+00
  3.210197660574E+00  3.248720032501E+00  3.287704672891E+00  3.327157128966E+00
  3.367083014514E+00  3.407488010688E+00  3.448377866816E+00  3.489758401218E+00
  3.531635502032E+00  3.574015128057E+00  3.616903309594E+00  3.660306149309E+00
  3.704229823100E+00  3.748680580978E+00  3.793664747949E+00  3.839188724925E+00
  3.885258989624E+00  3.931882097499E+00  3.979064682669E+00  4.026813458861E+00
  4.075135220368E+00  4.124036843012E+00  4.173525285128E+00  4.223607588550E+00
  4.274290879612E+00  4.325582370168E+00  4.377489358610E+00  4.430019230913E+00
  4.483179461684E+00  4.536977615224E+00  4.591421346607E+00  4.646518402766E+00
  4.702276623599E+00  4.758703943083E+00  4.815808390400E+00  4.873598091084E+00
  4.932081268177E+00  4.991266243395E+00  5.051161438316E+00  5.111775375576E+00
  5.173116680083E+00  5.235194080244E+00  5.298016409207E+00  5.361592606117E+00
  5.425931717391E+00  5.491042897999E+00  5.556935412775E+00  5.623618637729E+00
  5.691102061381E+00  5.759395286118E+00  5.828508029551E+00  5.898450125906E+00
  5.969231527417E+00  6.040862305746E+00  6.113352653415E+00  6.186712885256E+00
  6.260953439879E+00  6.336084881157E+00  6.412117899731E+00  6.489063314528E+00
  6.566932074303E+00  6.645735259194E+00  6.725484082304E+00  6.806189891292E+00
  6.887864169988E+00  6.970518540027E+00  7.054164762508E+00  7.138814739658E+00
  7.224480516534E+00  7.311174282732E+00  7.398908374125E+00  7.487695274614E+00
  7.577547617910E+00  7.668478189325E+00  7.760499927597E+00  7.853625926728E+00
  7.947869437849E+00  8.043243871103E+00  8.139762797556E+00  8.237439951127E+00
  8.336289230540E+00  8.436324701307E+00  8.537560597722E+00  8.640011324895E+00
  8.743691460794E+00  8.848615758323E+00  8.954799147423E+00  9.062256737192E+00
  9.171003818039E+00  9.281055863855E+00  9.392428534221E+00  9.505137676632E+00
  9.619199328751E+00  9.734629720697E+00  9.851445277345E+00  9.969662620673E+00
  1.008929857212E+01  1.021037015499E+01  1.033289459685E+01  1.045688933201E+01
  1.058237200399E+01  1.070936046804E+01  1.083787279366E+01  1.096792726718E+01
  1.109954239439E+01  1.123273690312E+01  1.136752974596E+01  1.150394010291E+01
  1.164198738414E+01  1.178169123275E+01  1.192307152755E+01  1.206614838588E+01
  1.221094216651E+01  1.235747347251E+01  1.250576315418E+01  1.265583231203E+01
  1.280770229977E+01  1.296139472737E+01  1.311693146410E+01  1.327433464166E+01
  1.343362665736E+01  1.359483017725E+01  1.375796813938E+01  1.392306375705E+01
  1.409014052214E+01  1.425922220840E+01  1.443033287490E+01  1.460349686940E+01
  1.477873883184E+01  1.495608369782E+01  1.513555670219E+01  1.531718338262E+01
  1.550098958321E+01  1.568700145821E+01  1.587524547571E+01  1.606574842141E+01
  1.625853740247E+01  1.645363985130E+01  1.665108352952E+01  1.685089653187E+01
  1.705310729025E+01  1.725774457774E+01  1.746483751267E+01  1.767441556282E+01
  1.788650854958E+01  1.810114665217E+01  1.831836041200E+01  1.853818073694E+01
  1.876063890578E+01  1.898576657265E+01  1.921359577152E+01  1.944415892078E+01
  1.967748882783E+01  1.991361869377E+01  2.015258211809E+01  2.039441310351E+01
  2.063914606075E+01  2.088681581348E+01  2.113745760324E+01  2.139110709448E+01
  2.164780037961E+01  2.190757398417E+01  2.217046487198E+01  2.243651045044E+01
  2.270574857585E+01  2.297821755876E+01  2.325395616946E+01  2.353300364350E+01
  2.381539968722E+01  2.410118448347E+01  2.439039869727E+01  2.468308348163E+01
  2.497928048341E+01  2.527903184922E+01  2.558238023141E+01  2.588936879418E+01
  2.620004121971E+01  2.651444171435E+01  2.683261501492E+01  2.715460639510E+01
  2.748046167184E+01  2.781022721190E+01  2.814394993845E+01  2.848167733771E+01
  2.882345746576E+01  2.916933895535E+01  2.951937102281E+01  2.987360347509E+01
  3.023208671679E+01  3.059487175739E+01  3.096201021848E+01  3.133355434110E+01
  3.170955699319E+01  3.209007167711E+01  3.247515253724E+01  3.286485436768E+01
  3.325923262010E+01  3.365834341154E+01  3.406224353248E+01  3.447099045487E+01
  3.488464234032E+01  3.530325804841E+01  3.572689714499E+01  3.615561991073E+01
  3.658948734966E+01  3.702856119785E+01  3.747290393223E+01  3.792257877942E+01
  3.837764972477E+01  3.883818152147E+01  3.930423969972E+01  3.977589057612E+01
  4.025320126303E+01  4.073623967819E+01  4.122507455433E+01  4.171977544898E+01
  4.222041275437E+01  4.272705770742E+01  4.323978239991E+01  4.375865978871E+01
  4.428376370617E+01
</grid-data>
</grid>
<valence-charge total-charge="5" is-unscreening-charge="yes"
 rescaled-to-z-pseudo="no">
<radfunc>
<data npts="457">
  1.562277039612E-02  1.565344008577E-02  1.574514275395E-02  1.589820344637E-02
  1.611115413959E-02  1.639141688834E-02  1.674902918885E-02  1.715910699009E-02
  1.762093791697E-02  1.816050095223E-02  1.876996914000E-02  1.943397265161E-02
  2.023862607781E-02  2.108154563810E-02  2.207924469725E-02  2.307926369010E-02
  2.423530458146E-02  2.533556958058E-02  2.657769006094E-02  2.798030051128E-02
  2.956457385554E-02  3.097886332016E-02  3.253860783301E-02  3.425917498728E-02
  3.615763708753E-02  3.825297518261E-02  4.056630978179E-02  4.245842192996E-02
  4.449723564600E-02  4.669458421168E-02  4.906331658487E-02  5.161739118024E-02
  5.437197856965E-02  5.734357380583E-02  6.055011905970E-02  6.401113721932E-02
  6.774787701703E-02  7.178347011861E-02  7.465224177040E-02  7.767298960915E-02
  8.085418542035E-02  8.420479336593E-02  8.773429707690E-02  9.145272755587E-02
  9.537069175454E-02  9.949940165214E-02  1.038507036161E-01  1.084371077748E-01
  1.132718170752E-01  1.183687556316E-01  1.237425959005E-01  1.294087841377E-01
  1.353835635058E-01  1.416839941088E-01  1.483279691325E-01  1.553342261670E-01
  1.627223526827E-01  1.705127845299E-01  1.787267962272E-01  1.873864817136E-01
  1.965147241542E-01  2.061351533203E-01  2.162720890173E-01  2.269504690099E-01
  2.381957598964E-01  2.500338494237E-01  2.624909187995E-01  2.689597965845E-01
  2.755932936667E-01  2.823946951737E-01  2.893672725301E-01  2.965142767904E-01
  3.038389315830E-01  3.113444256584E-01  3.190339050385E-01  3.269104647613E-01
  3.349771402159E-01  3.432368980645E-01  3.516926267455E-01  3.603471265534E-01
  3.692030992884E-01  3.782631374688E-01  3.875297130978E-01  3.970051659722E-01
  4.066916915206E-01  4.165913281546E-01  4.267059441111E-01  4.370372237633E-01
  4.475866533694E-01  4.583555062255E-01  4.693448271824E-01  4.805554164796E-01
  4.919878128443E-01  5.036422757949E-01  5.155187670844E-01  5.276169312102E-01
  5.399360749118E-01  5.524751455742E-01  5.652327084473E-01  5.782069225936E-01
  5.913955154724E-01  6.047957560725E-01  6.184044265116E-01  6.322177920272E-01
  6.462315692995E-01  6.604408930647E-01  6.748402809997E-01  6.894235968923E-01
  7.041840121455E-01  7.191139657118E-01  7.342051226034E-01  7.494483311868E-01
  7.648335795369E-01  7.803499512027E-01  7.959855808202E-01  8.117276100978E-01
  8.275621447925E-01  8.434742133961E-01  8.594477283466E-01  8.754654506788E-01
  8.915089591201E-01  9.075586247191E-01  9.235935921661E-01  9.395917690149E-01
  9.555298240444E-01  9.713831959976E-01  9.871261138996E-01  1.002731630085E+00
  1.018171666943E+00  1.033417078223E+00  1.048437725525E+00  1.063202570323E+00
  1.077679781550E+00  1.091836858395E+00  1.105640767536E+00  1.119058093582E+00
  1.132055201018E+00  1.144598405427E+00  1.156654151316E+00  1.168189193382E+00
  1.179170777676E+00  1.189566818787E+00  1.199346068973E+00  1.208478275099E+00
  1.216934319324E+00  1.224686339815E+00  1.231707828227E+00  1.237973701478E+00
  1.243460346291E+00  1.248145636197E+00  1.252008922091E+00  1.255030999046E+00
  1.257194053757E+00  1.258481598789E+00  1.258878401506E+00  1.258370417155E+00
  1.256944736930E+00  1.254589562780E+00  1.251294221236E+00  1.247049228295E+00
  1.241846416586E+00  1.235679134215E+00  1.228542522173E+00  1.220433873618E+00
  1.211353074075E+00  1.201303116544E+00  1.190290679948E+00  1.178326753590E+00
  1.165427284561E+00  1.151613819921E+00  1.136914111186E+00  1.121362328605E+00
  1.104997850279E+00  1.087863214474E+00  1.070003943513E+00  1.051469136157E+00
  1.032311097582E+00  1.012584020956E+00  9.923419347446E-01  9.716381989209E-01
  9.505257053799E-01  9.290565630929E-01  9.072819844461E-01  8.852521491964E-01
  8.630160801277E-01  8.406215277566E-01  8.181148642597E-01  7.955409867838E-01
  7.729432302343E-01  7.503632895855E-01  7.278411517054E-01  7.054150366348E-01
  6.831213482145E-01  6.609946339058E-01  6.390675536070E-01  6.173708572275E-01
  5.959333707429E-01  5.747819904201E-01  5.539416848702E-01  5.334355045599E-01
  5.132845983865E-01  4.935082369034E-01  4.741238417643E-01  4.551470209412E-01
  4.365916092638E-01  4.184697138180E-01  4.007917637418E-01  3.835665639535E-01
  3.668013523546E-01  3.505018600505E-01  3.346723741451E-01  3.193158026747E-01
  3.044337412638E-01  2.900265410666E-01  2.760933776657E-01  2.626323204956E-01
  2.496404024665E-01  2.371136894530E-01  2.250473493362E-01  2.134357203093E-01
  2.022723781826E-01  1.915502024410E-01  1.812614408352E-01  1.713977723056E-01
  1.619503680628E-01  1.529099506691E-01  1.442668509870E-01  1.360110628812E-01
  1.281322955789E-01  1.206200236170E-01  1.134635343094E-01  1.066519727107E-01
  1.001743840359E-01  9.401975353597E-02  8.817704383084E-02  8.263522971835E-02
  7.738333048789E-02  7.241043977849E-02  6.770575303092E-02  6.325859259147E-02
  5.905843053302E-02  5.509490926523E-02  5.135786001136E-02  4.783731923410E-02
  4.452354309634E-02  4.140702004598E-02  3.847848161627E-02  3.572891153438E-02
  3.314955323221E-02  3.073191585334E-02  2.846777885009E-02  2.634919526351E-02
  2.436849377839E-02  2.251827964304E-02  2.079143454234E-02  1.918111550960E-02
  1.768075296049E-02  1.628404792948E-02  1.498496858602E-02  1.377774610455E-02
  1.265686995942E-02  1.161708271180E-02  1.065337435283E-02  9.760976263335E-03
  8.935354847136E-03  8.172204891388E-03  7.467442703984E-03  6.817199074646E-03
  6.217812102941E-03  5.665819933274E-03  5.157953433669E-03  4.691128852163E-03
  4.262440481616E-03  3.869153360978E-03  3.508696038289E-03  3.178653418151E-03
  2.876759713937E-03  2.600891522696E-03  2.349061038525E-03  2.119409418124E-03
  1.910200310321E-03  1.719813559571E-03  1.546739091743E-03  1.389570988967E-03
  1.247001758893E-03  1.117816802354E-03  1.000889082269E-03  8.951739954636E-04
  7.997044481104E-04  7.135861345627E-04  6.359930185361E-04  5.661630148458E-04
  5.033938692530E-04  4.470392333789E-04  3.965049311334E-04  3.512454126461E-04
  3.107603912999E-04  2.745916591267E-04  2.423200755422E-04  2.135627241594E-04
  1.879702322282E-04  1.652242470973E-04  1.450350639815E-04  1.271393992368E-04
  1.112983033009E-04  9.729520743411E-05  8.493409840810E-05  7.403781531681E-05
  6.444646274003E-05  5.601593456158E-05  4.861654283415E-05  4.213174618868E-05
  3.645697240589E-05  3.149852989904E-05  2.717260299969E-05  2.340432608956E-05
  2.012693178115E-05  1.728096851544E-05  1.481358311592E-05  1.267786401333E-05
  1.083224103347E-05  9.239937820017E-06  7.868473145450E-06  6.689207543471E-06
  5.676931876587E-06  4.809494630562E-06  4.067464903465E-06  3.433828229901E-06
  2.893712550329E-06  2.434141800484E-06  2.043814756476E-06  1.712906926577E-06
  1.432893430850E-06  1.196390954132E-06  9.970169964010E-07  8.292647768945E-07
  6.883922744923E-07  5.703240066541E-07  4.715642626432E-07  3.891206138342E-07
  3.204366246657E-07  2.633327823332E-07  2.159547517417E-07  1.767281446982E-07
  1.443190689945E-07  1.175997941046E-07  9.561893590859E-08  7.757562339262E-08
  6.279716589085E-08  5.071979039023E-08  4.087206495871E-08  3.286066674383E-08
  2.635819147768E-08  2.109273627215E-08  1.683901894724E-08  1.341082545168E-08
  1.065460234781E-08  8.444034073172E-09  6.675464980242E-09  5.264044204685E-09
  4.140487420994E-09  3.248363701634E-09  2.541828178502E-09  1.983732179186E-09
  1.544052128920E-09  1.198586914360E-09  9.278807284123E-10  7.163347764751E-10
  5.514767331627E-10  4.233615947133E-10  3.240816660492E-10  2.473669343124E-10
  1.882600857764E-10  1.428529857425E-10  1.080736196695E-10  8.151434009581E-11
  6.129382363183E-11  4.594645572379E-11  3.433396335151E-11  2.557503822494E-11
  1.898946227394E-11  1.405388661656E-11  1.036694489758E-11  7.621819262113E-12
  5.584737148657E-12  4.078172261114E-12  2.967764327881E-12  2.152168747989E-12
  1.555206704248E-12  1.119815307083E-12  8.034012806327E-13  5.742851732934E-13
  4.089898589942E-13  2.901803329458E-13  2.051040872460E-13  1.444148064557E-13
  1.012884938232E-13  7.076184591762E-14  4.923889058343E-14  3.412452316206E-14
  2.355337005792E-14  1.618997943013E-14  1.108216723023E-14  7.553815643692E-15
  5.126832743442E-15  3.464580673956E-15  2.331031909790E-15  1.561416608860E-15
  1.041211957719E-15  6.911713482713E-16  4.567038647858E-16  3.003736789157E-16
  1.966268460769E-16  1.281010502379E-16  8.305510307279E-17  5.358683534527E-17
  3.440344851110E-17  2.197714426298E-17  1.396813831787E-17  8.832332717134E-18
  5.555866582073E-18  0.000000000000E+00  0.000000000000E+00  0.000000000000E+00
  0.000000000000E+00  0.000000000000E+00  0.000000000000E+00  0.000000000000E+00
  0.000000000000E+00  0.000000000000E+00  0.000000000000E+00  0.000000000000E+00
  0.000000000000E+00  0.000000000000E+00  0.000000000000E+00  0.000000000000E+00
  0.000000000000E+00  0.000000000000E+00  0.000000000000E+00  0.000000000000E+00
  0.000000000000E+00  0.000000000000E+00  0.000000000000E+00  0.000000000000E+00
  0.000000000000E+00  0.000000000000E+00  0.000000000000E+00  0.000000000000E+00
  0.000000000000E+00  0.000000000000E+00  0.000000000000E+00  0.000000000000E+00
  0.000000000000E+00  0.000000000000E+00  0.000000000000E+00  0.000000000000E+00
  0.000000000000E+00
</data>
</radfunc>
</valence-charge>
<pseudocore-charge matching-radius="1.03367279436"
 number-of-continuous-derivatives="4">
<annotation model-charge-form="Teter function with specified parameters" />
<radfunc>
<data npts="290">
  6.470408230599E+00  6.470003905189E+00  6.468795237550E+00  6.466778754405E+00
  6.463975129367E+00  6.460288618124E+00  6.455590135167E+00  6.450209864059E+00
  6.444160193072E+00  6.437105140854E+00  6.429152655837E+00  6.420508568535E+00
  6.410061302615E+00  6.399149753050E+00  6.386277405055E+00  6.373421441026E+00
  6.358617128263E+00  6.344583909156E+00  6.328807541342E+00  6.311076446782E+00
  6.291154697057E+00  6.273464443259E+00  6.254056667574E+00  6.232770531481E+00
  6.209431375455E+00  6.183849796312E+00  6.155820722990E+00  6.133060063114E+00
  6.108698458557E+00  6.082630282071E+00  6.054744010518E+00  6.024922066671E+00
  5.993040687775E+00  5.958969827704E+00  5.922573100660E+00  5.883707775443E+00
  5.842224830616E+00  5.797969082218E+00  5.766845467733E+00  5.734368846837E+00
  5.700489007153E+00  5.665154739717E+00  5.628313916331E+00  5.589913580483E+00
  5.549900053052E+00  5.508219054143E+00  5.464815842398E+00  5.419635373237E+00
  5.372622477513E+00  5.323722062117E+00  5.272879334104E+00  5.220040049947E+00
  5.165150791511E+00  5.108159270358E+00  5.049014661932E+00  4.987667971149E+00
  4.924072430783E+00  4.858183933965E+00  4.789961501893E+00  4.719367787665E+00
  4.646369616877E+00  4.570938565277E+00  4.493051573378E+00  4.412691597467E+00
  4.329848295845E+00  4.244518748551E+00  4.156708207996E+00  4.111876632263E+00
  4.066430877138E+00  4.020374248002E+00  3.973710710834E+00  3.926444918131E+00
  3.878582234934E+00  3.830128764922E+00  3.781091376482E+00  3.731477728683E+00
  3.681296297085E+00  3.630556399276E+00  3.579268220060E+00  3.527442836175E+00
  3.475092240458E+00  3.422229365319E+00  3.368868105414E+00  3.315023339391E+00
  3.260710950564E+00  3.205947846375E+00  3.150751976506E+00  3.095142349463E+00
  3.039139047490E+00  2.982763239624E+00  2.926037192735E+00  2.868984280350E+00
  2.811628989084E+00  2.753996922486E+00  2.696114802095E+00  2.638010465518E+00
  2.579712861310E+00  2.521252040465E+00  2.462659144307E+00  2.403966388568E+00
  2.345207043457E+00  2.286415409513E+00  2.227626789037E+00  2.168877452932E+00
  2.110204602733E+00  2.051646327686E+00  1.993241556686E+00  1.935030004939E+00
  1.877052115208E+00  1.819348993524E+00  1.761962339283E+00  1.704934369634E+00
  1.648307738133E+00  1.592125447649E+00  1.536430757515E+00  1.481267085014E+00
  1.426677901253E+00  1.372706621588E+00  1.319396490751E+00  1.266790462921E+00
  1.214931077003E+00  1.163860327429E+00  1.113619530887E+00  1.064249189385E+00
  1.015788850158E+00  9.682769629756E-01  9.217507354490E-01  8.762459870288E-01
  8.317970024185E-01  7.884363852047E-01  7.461949125570E-01  7.051013919099E-01
  6.651825205880E-01  6.264627493908E-01  5.889641511913E-01  5.527062956459E-01
  5.177061311390E-01  4.839778751140E-01  4.515329139489E-01  4.203797135451E-01
  3.905237417822E-01  3.619674039759E-01  3.347099924368E-01  3.087476511815E-01
  2.840733567785E-01  2.606769162353E-01  2.385449827280E-01  2.176610898655E-01
  1.980057050447E-01  1.795563023031E-01  1.622874549111E-01  1.461709477594E-01
  1.311759094072E-01  1.172689634359E-01  1.044143985402E-01  9.257435655080E-02
  8.170903734816E-02  7.177691938210E-02  6.273499427361E-02  5.453901373531E-02
  4.714374681844E-02  4.050324527743E-02  3.457111464397E-02  2.930078842571E-02
  2.464580269570E-02  2.056006822171E-02  1.699813720535E-02  1.391546166316E-02
  1.126864048961E-02  9.015652299924E-03  7.116071259170E-03  5.531263267691E-03
  4.224560089750E-03  3.161409283711E-03  2.309498114976E-03  1.638850004619E-03
  1.121892481993E-03  7.334960623024E-04  4.509839522268E-04  2.541129887287E-04
  1.250267275033E-04  4.818210618549E-05  1.025160066056E-05  3.257266633647E-09
  8.161405766761E-06  2.725122437903E-05  5.143062626963E-05  7.631315533478E-05
  9.878570816374E-05  1.168249313773E-04  1.293160744001E-04  1.358779056363E-04
  1.366970269573E-04  1.323745530852E-04  1.237876683887E-04  1.119680470411E-04
  9.799854017416E-05  8.292891534913E-05  6.771080152829E-05  5.315137050237E-05
  3.988469773048E-05  2.835921558596E-05  1.883922215706E-05  1.141805818395E-05
  6.040328488604E-06  2.530432301868E-06  6.246831738045E-07  4.441103603308E-09
  3.279378427325E-07  1.258835167425E-06  2.489993525138E-06  3.761418220699E-06
  4.871862221824E-06  5.684067155927E-06  6.124086045332E-06  6.175524334312E-06
  5.869836105887E-06  5.274003026776E-06  4.476995594319E-06  3.576369854415E-06
  2.666197373341E-06  1.827280076374E-06  1.120290196088E-06  5.821298748934E-07
  2.254584006963E-07  4.102058310173E-08  2.156671443576E-09  7.070508355110E-08
  2.034375867972E-07  3.581953560670E-07  4.990153658966E-07  5.997314303322E-07
  6.457762323675E-07  6.341681228027E-07  5.719063172381E-07  4.731903272780E-07
  3.560008761937E-07  2.386170870226E-07  1.365972590745E-07  6.062912171480E-08
  1.548176615866E-08  9.462737001088E-11  0.000000000000E+00  0.000000000000E+00
  0.000000000000E+00  0.000000000000E+00  0.000000000000E+00  0.000000000000E+00
  0.000000000000E+00  0.000000000000E+00  0.000000000000E+00  0.000000000000E+00
  0.000000000000E+00  0.000000000000E+00  0.000000000000E+00  0.000000000000E+00
  0.000000000000E+00  0.000000000000E+00  0.000000000000E+00  0.000000000000E+00
  0.000000000000E+00  0.000000000000E+00  0.000000000000E+00  0.000000000000E+00
  0.000000000000E+00  0.000000000000E+00  0.000000000000E+00  0.000000000000E+00
  0.000000000000E+00  0.000000000000E+00  0.000000000000E+00  0.000000000000E+00
  0.000000000000E+00  0.000000000000E+00  0.000000000000E+00  0.000000000000E+00
  0.000000000000E+00  0.000000000000E+00  0.000000000000E+00  0.000000000000E+00
  0.000000000000E+00  0.000000000000E+00  0.000000000000E+00  0.000000000000E+00
  0.000000000000E+00  0.000000000000E+00  0.000000000000E+00  0.000000000000E+00
  0.000000000000E+00  0.000000000000E+00
</data>
</radfunc>
</pseudocore-charge>
<semilocal-potentials set="scalar_relativistic">
<slps n="3" l="s" rc="1.46089145447" eref="-0.515098780743">
<radfunc>
<data npts="290">
  3.093726406360E+01  3.092698054301E+01  3.089626702137E+01  3.084511749997E+01
  3.077419091109E+01  3.068126247163E+01  3.056337020466E+01  3.042911581882E+01
  3.027909895237E+01  3.010539601659E+01  2.991118489332E+01  2.970196642256E+01
  2.945168161572E+01  2.919323452025E+01  2.889215945283E+01  2.859550548587E+01
  2.825878099351E+01  2.794431638721E+01  2.759614556013E+01  2.721143031494E+01
  2.678727697797E+01  2.641760723350E+01  2.601937200914E+01  2.559114727104E+01
  2.513157743077E+01  2.463940454986E+01  2.411350065647E+01  2.369635027927E+01
  2.325934722172E+01  2.280223161226E+01  2.232482642345E+01  2.182704705634E+01
  2.130891087772E+01  2.077054656005E+01  2.021220306222E+01  1.963425808069E+01
  1.903722579539E+01  1.842176373259E+01  1.800160899941E+01  1.757389543444E+01
  1.713893070553E+01  1.669705364581E+01  1.624863443427E+01  1.579407462717E+01
  1.533380703158E+01  1.486829541320E+01  1.439803403006E+01  1.392354698409E+01
  1.344538738197E+01  1.296413629651E+01  1.248040151918E+01  1.199481609372E+01
  1.150803661966E+01  1.102074131416E+01  1.053362781888E+01  1.004741073812E+01
  9.562818893546E+00  9.080592279933E+00  8.601478706692E+00  8.126230109998E+00
  7.655598521912E+00  7.190331685148E+00  6.731168305975E+00  6.278832943180E+00
  5.834030538513E+00  5.397440603901E+00  4.969711093340E+00  4.759361283243E+00
  4.551452003034E+00  4.346052486771E+00  4.143228762424E+00  3.943043440162E+00
  3.745555501394E+00  3.550820089750E+00  3.358888305261E+00  3.169807003194E+00
  2.983618599098E+00  2.800360881775E+00  2.620066836044E+00  2.442764477289E+00
  2.268476699957E+00  2.097221142288E+00  1.929010069721E+00  1.763850279507E+00
  1.601743029219E+00  1.442683991913E+00  1.286663240774E+00  1.133665266143E+00
  9.836690278273E-01  8.366480455808E-01  6.925705305767E-01  5.513995605947E-01
  4.130933014697E-01  2.776052771267E-01  1.448846902345E-01  1.487679513968E-02
 -1.124766757043E-01 -2.372370311285E-01 -3.594680864024E-01 -4.792355748012E-01
 -5.966065070514E-01 -7.116484810179E-01 -8.244289449948E-01 -9.350144190455E-01
 -1.043469680001E+00 -1.149856916967E+00 -1.254234865479E+00 -1.356657929787E+00
 -1.457175304116E+00 -1.555830105073E+00 -1.652658528747E+00 -1.747689047255E+00
 -1.840941660671E+00 -1.932427221301E+00 -2.022146848078E+00 -2.110091449488E+00
 -2.196241373716E+00 -2.280566204767E+00 -2.363024722879E+00 -2.443565046753E+00
 -2.522124973858E+00 -2.598632533223E+00 -2.673006762755E+00 -2.745158720137E+00
 -2.814992732728E+00 -2.882407887589E+00 -2.947299757816E+00 -3.009562355722E+00
 -3.069090297160E+00 -3.125781154368E+00 -3.179537967330E+00 -3.230271875742E+00
 -3.277904825467E+00 -3.322372295011E+00 -3.363625979136E+00 -3.401636358732E+00
 -3.436395078490E+00 -3.467917047409E+00 -3.496242171912E+00 -3.521436627888E+00
 -3.543593576904E+00 -3.562833233476E+00 -3.579302195478E+00 -3.593171958804E+00
 -3.604636551002E+00 -3.613909237043E+00 -3.621218274101E+00 -3.626801721214E+00
 -3.630901343933E+00 -3.633755693050E+00 -3.635592479460E+00 -3.636620413001E+00
 -3.637020720055E+00 -3.636938600804E+00 -3.636474929850E+00 -3.635678540745E+00
 -3.634539462714E+00 -3.632983493655E+00 -3.630868494122E+00 -3.627982769944E+00