<?xml version="1.0" encoding="UTF-8" ?>
<psml version="1.1" energy_unit="hartree" length_unit="bohr"
 uuid="f0bb04a0-23d3-11e8-40d9-3430fb47aefb"
 xmlns="http://esl.cecam.org/PSML/ns/1.1">
<provenance creator="ONCVPSP-3.3.0+psml-3.3.0-73 (scalar-relativistic)"
 date="2018-03-09">
<annotation action="semilocal-pseudopotential-generation"
 action-cont="projectors-generation" />
<input-file name="oncvpsp-input">
<![CDATA[# atsym z nc nv iexc psfile
Pb 82 12 3 -001012 upf
# n l f
1 0 2.0
2 0 2.0
2 1 6.0
3 0 2.0
3 1 6.0
3 2 10.0
4 0 2.0
4 1 6.0
4 2 10.0
5 0 2.0
5 1 6.0
4 3 14.0
5 2 10.0
6 0 2.0
6 1 2.0
# lmax
2
# l rc ep ncon nbas qcut
0 2.4 0.0 4 7 3.2
1 2.4 0.0 4 8 6.1
2 2.1 0.0 4 7 7.2
# lloc lpopt rc5 dvloc0
4 5 2.1 0.0
# l nproj debl
0 2 2.7
1 2 2.7
2 2 1.0
# icmod fcfact rcfact
3 6.0 1.34
# epsh1 epsh2 depsh
-15.0 12.0 0.02
# rlmax drl
6.0 0.01
 0
]]>
</input-file>
</provenance>
<pseudo-atom-spec atomic-label="Pb" atomic-number="82" z-pseudo="14"
 flavor="Hamann&apos;s oncvpsp" relativity="scalar" spin-dft="no"
 core-corrections="yes">
<annotation pseudo-energy="-60.3195465562" />
<exchange-correlation>
<annotation oncvpsp-xc-code="-1012" oncvpsp-xc-type="libxc-interface" />
<libxc-info number-of-functionals="2">
<functional name="Slater exchange (LDA)" type="exchange" id="1" />
<functional name="Perdew &amp; Wang (LDA)" type="correlation" id="12" />
</libxc-info>
</exchange-correlation>
<valence-configuration total-valence-charge="14">
<shell n="5" l="d" occupation="10" />
<shell n="6" l="s" occupation="2" />
<shell n="6" l="p" occupation="2" />
</valence-configuration>
</pseudo-atom-spec>
<grid npts="457">
<annotation type="sampled from oncvpsp log grid"
 recipe="r(i:1..N) = r1*exp(a*(i-1)) + r=0; resampled"
 recipe-cont="r1: scale; a: step" scale="0.609756097561E-05"
 step="0.119285708653E-01" delta="0.500000000000E-02" rmax="44.0711828530" />
<grid-data>
  0.000000000000E+00  5.032510521928E-03  1.005204483031E-02  1.507967014897E-02
  2.031910874069E-02  2.548791981066E-02  3.084768604356E-02  3.602211884327E-02
  4.107285502462E-02  4.627644805099E-02  5.152104103689E-02  5.667985490806E-02
  6.235522201693E-02  6.778543968363E-02  7.281477174075E-02  7.821725444879E-02
  8.402057367273E-02  8.918425832686E-02  9.466528953126E-02  1.004831705747E-01
  1.066586033671E-01  1.118711087980E-01  1.173383542312E-01  1.230727890481E-01
  1.290874710433E-01  1.353960961578E-01  1.420130296658E-01  1.471870937611E-01
  1.525496683003E-01  1.581076214217E-01  1.638680714953E-01  1.698383962400E-01
  1.760262421726E-01  1.824395344007E-01  1.890864867735E-01  1.959756124011E-01
  2.031157345580E-01  2.105159979834E-01  2.155986962387E-01  2.208041111607E-01
  2.261352056205E-01  2.315950140250E-01  2.371866440437E-01  2.429132783775E-01
  2.487781765706E-01  2.547846768657E-01  2.609361981040E-01  2.672362416710E-01
  2.736883934899E-01  2.802963260623E-01  2.870638005588E-01  2.939946689595E-01
  3.010928762468E-01  3.083624626509E-01  3.158075659492E-01  3.234324238214E-01
  3.312413762622E-01  3.392388680507E-01  3.474294512809E-01  3.558177879526E-01
  3.644086526249E-01  3.732069351339E-01  3.822176433758E-01  3.914459061574E-01
  4.008969761157E-01  4.105762327070E-01  4.204891852695E-01  4.255350554928E-01
  4.306414761587E-01  4.358091738726E-01  4.410388839590E-01  4.463313505666E-01
  4.516873267734E-01  4.571075746946E-01  4.625928655910E-01  4.681439799781E-01
  4.737617077378E-01  4.794468482307E-01  4.852002104094E-01  4.910226129343E-01
  4.969148842895E-01  5.028778629010E-01  5.089123972558E-01  5.150193460229E-01
  5.211995781752E-01  5.274539731133E-01  5.337834207906E-01  5.401888218401E-01
  5.466710877022E-01  5.532311407546E-01  5.598699144437E-01  5.665883534170E-01
  5.733874136580E-01  5.802680626219E-01  5.872312793734E-01  5.942780547259E-01
  6.014093913826E-01  6.086263040792E-01  6.159298197281E-01  6.233209775648E-01
  6.308008292956E-01  6.383704392472E-01  6.460308845181E-01  6.537832551324E-01
  6.616286541939E-01  6.695681980443E-01  6.776030164208E-01  6.857342526179E-01
  6.939630636493E-01  7.022906204131E-01  7.107181078580E-01  7.192467251523E-01
  7.278776858541E-01  7.366122180844E-01  7.454515647014E-01  7.543969834778E-01
  7.634497472795E-01  7.726111442469E-01  7.818824779779E-01  7.912650677136E-01
  8.007602485262E-01  8.103693715085E-01  8.200938039666E-01  8.299349296142E-01
  8.398941487695E-01  8.499728785548E-01  8.601725530974E-01  8.704946237346E-01
  8.809405592194E-01  8.915118459301E-01  9.022099880812E-01  9.130365079382E-01
  9.239929460335E-01  9.350808613859E-01  9.463018317225E-01  9.576574537032E-01
  9.691493431476E-01  9.807791352654E-01  9.925484848885E-01  1.004459066707E+00
  1.016512575508E+00  1.028710726414E+00  1.041055255131E+00  1.053547918192E+00
  1.066190493211E+00  1.078984779129E+00  1.091932596479E+00  1.105035787636E+00
  1.118296217088E+00  1.131715771693E+00  1.145296360953E+00  1.159039917285E+00
  1.172948396292E+00  1.187023777048E+00  1.201268062372E+00  1.215683279121E+00
  1.230271478470E+00  1.245034736212E+00  1.259975153047E+00  1.275094854883E+00
  1.290395993142E+00  1.305880745059E+00  1.321551314000E+00  1.337409929768E+00
  1.353458848925E+00  1.369700355112E+00  1.386136759374E+00  1.402770400486E+00
  1.419603645292E+00  1.436638889036E+00  1.453878555704E+00  1.471325098372E+00
  1.488980999553E+00  1.506848771548E+00  1.524930956806E+00  1.543230128288E+00
  1.561748889827E+00  1.580489876505E+00  1.599455755023E+00  1.618649224084E+00
  1.638073014773E+00  1.657729890950E+00  1.677622649641E+00  1.697754121437E+00
  1.718127170894E+00  1.738744696945E+00  1.759609633308E+00  1.780724948908E+00
  1.802093648295E+00  1.823718772074E+00  1.845603397339E+00  1.867750638107E+00
  1.890163645765E+00  1.912845609514E+00  1.935799756828E+00  1.959029353910E+00
  1.982537706157E+00  2.006328158631E+00  2.030404096534E+00  2.054768945693E+00
  2.079426173041E+00  2.104379287117E+00  2.129631838563E+00  2.155187420626E+00
  2.181049669673E+00  2.207222265709E+00  2.233708932898E+00  2.260513440092E+00
  2.287639601374E+00  2.315091276590E+00  2.342872371909E+00  2.370986840372E+00
  2.399438682457E+00  2.428231946646E+00  2.457370730006E+00  2.486859178766E+00
  2.516701488911E+00  2.546901906778E+00  2.577464729659E+00  2.608394306415E+00
  2.639695038092E+00  2.671371378549E+00  2.703427835092E+00  2.735868969113E+00
  2.768699396742E+00  2.801923789503E+00  2.835546874977E+00  2.869573437477E+00
  2.904008318727E+00  2.938856418551E+00  2.974122695574E+00  3.009812167921E+00
  3.045929913936E+00  3.082481072903E+00  3.119470845778E+00  3.156904495927E+00
  3.194787349879E+00  3.233124798077E+00  3.271922295654E+00  3.311185363202E+00
  3.350919587560E+00  3.391130622611E+00  3.431824190082E+00  3.473006080363E+00
  3.514682153328E+00  3.556858339168E+00  3.599540639238E+00  3.642735126908E+00
  3.686447948431E+00  3.730685323813E+00  3.775453547698E+00  3.820758990271E+00
  3.866608098154E+00  3.913007395332E+00  3.959963484076E+00  4.007483045885E+00
  4.055572842435E+00  4.104239716545E+00  4.153490593143E+00  4.203332480261E+00
  4.253772470024E+00  4.304817739664E+00  4.356475552540E+00  4.408753259171E+00
  4.461658298281E+00  4.515198197860E+00  4.569380576234E+00  4.624213143149E+00
  4.679703700867E+00  4.735860145277E+00  4.792690467021E+00  4.850202752625E+00
  4.908405185656E+00  4.967306047884E+00  5.026913720459E+00  5.087236685104E+00
  5.148283525326E+00  5.210062927630E+00  5.272583682761E+00  5.335854686954E+00
  5.399884943198E+00  5.464683562516E+00  5.530259765266E+00  5.596622882449E+00
  5.663782357039E+00  5.731747745323E+00  5.800528718267E+00  5.870135062886E+00
  5.940576683641E+00  6.011863603845E+00  6.084005967091E+00  6.157014038696E+00
  6.230898207160E+00  6.305668985646E+00  6.381337013474E+00  6.457913057636E+00
  6.535408014327E+00  6.613832910499E+00  6.693198905425E+00  6.773517292290E+00
  6.854799499798E+00  6.937057093795E+00  7.020301778921E+00  7.104545400268E+00
  7.189799945071E+00  7.276077544412E+00  7.363390474945E+00  7.451751160644E+00
  7.541172174572E+00  7.631666240667E+00  7.723246235555E+00  7.815925190382E+00
  7.909716292666E+00  8.004632888178E+00  8.100688482836E+00  8.197896744630E+00
  8.296271505566E+00  8.395826763633E+00  8.496576684796E+00  8.598535605014E+00
  8.701718032274E+00  8.806138648661E+00  8.911812312445E+00  9.018754060195E+00
  9.126979108917E+00  9.236502858224E+00  9.347340892523E+00  9.459508983233E+00
  9.573023091032E+00  9.687899368124E+00  9.804154160542E+00  9.921804010468E+00
  1.004086565859E+01  1.016135604650E+01  1.028329231905E+01  1.040669182688E+01
  1.053157212881E+01  1.065795099435E+01  1.078584640628E+01  1.091527656316E+01
  1.104625988192E+01  1.117881500050E+01  1.131296078051E+01  1.144871630987E+01
  1.158610090559E+01  1.172513411646E+01  1.186583572586E+01  1.200822575457E+01
  1.215232446362E+01  1.229815235718E+01  1.244573018547E+01  1.259507894770E+01
  1.274621989507E+01  1.289917453381E+01  1.305396462821E+01  1.321061220375E+01
  1.336913955020E+01  1.352956922480E+01  1.369192405550E+01  1.385622714416E+01
  1.402250186989E+01  1.419077189233E+01  1.436106115504E+01  1.453339388890E+01
  1.470779461557E+01  1.488428815096E+01  1.506289960877E+01  1.524365440407E+01
  1.542657825692E+01  1.561169719600E+01  1.579903756236E+01  1.598862601310E+01
  1.618048952526E+01  1.637465539956E+01  1.657115126436E+01  1.677000507953E+01
  1.697124514049E+01  1.717490008217E+01  1.738099888316E+01  1.758957086976E+01
  1.780064572019E+01  1.801425346883E+01  1.823042451046E+01  1.844918960459E+01
  1.867057987984E+01  1.889462683840E+01  1.912136236046E+01  1.935081870879E+01
  1.958302853329E+01  1.981802487569E+01  2.005584117420E+01  2.029651126829E+01
  2.054006940351E+01  2.078655023635E+01  2.103598883919E+01  2.128842070526E+01
  2.154388175372E+01  2.180240833477E+01  2.206403723478E+01  2.232880568160E+01
  2.259675134978E+01  2.286791236598E+01  2.314232731437E+01  2.342003524214E+01
  2.370107566505E+01  2.398548857303E+01  2.427331443590E+01  2.456459420913E+01
  2.485936933964E+01  2.515768177172E+01  2.545957395298E+01  2.576508884042E+01
  2.607426990650E+01  2.638716114538E+01  2.670380707912E+01  2.702425276407E+01
  2.734854379724E+01  2.767672632281E+01  2.800884703868E+01  2.834495320315E+01
  2.868509264158E+01  2.902931375328E+01  2.937766551832E+01  2.973019750454E+01
  3.008695987460E+01  3.044800339309E+01  3.081337943381E+01  3.118313998701E+01
  3.155733766686E+01  3.193602571886E+01  3.231925802749E+01  3.270708912382E+01
  3.309957419330E+01  3.349676908362E+01  3.389873031263E+01  3.430551507638E+01
  3.471718125729E+01  3.513378743238E+01  3.555539288157E+01  3.598205759615E+01
  3.641384228730E+01  3.685080839475E+01  3.729301809549E+01  3.774053431263E+01
  3.819342072439E+01  3.865174177308E+01  3.911556267436E+01  3.958494942645E+01
  4.005996881956E+01  4.054068844540E+01  4.102717670674E+01  4.151950282723E+01
  4.201773686115E+01  4.252194970349E+01  4.303221309993E+01  4.354859965713E+01
  4.407118285301E+01
</grid-data>
</grid>
<valence-charge total-charge="14" is-unscreening-charge="yes"
 rescaled-to-z-pseudo="no">
<radfunc>
<data npts="457">
  1.982073933650E-02  1.982525670871E-02  1.983963112796E-02  1.986651652192E-02
  1.991253915410E-02  1.998261191545E-02  2.009036032040E-02  2.023911863843E-02
  2.043873191161E-02  2.071475279995E-02  2.108167206388E-02  2.154752983936E-02
  2.220370600982E-02  2.299781099636E-02  2.390203311221E-02  2.508090346111E-02
  2.662045145342E-02  2.825956942433E-02  3.031103854881E-02  3.288019615494E-02
  3.609916330714E-02  3.925212900737E-02  4.302964849065E-02  4.755549314319E-02
  5.297750803173E-02  5.947209752451E-02  6.724947710395E-02  7.407312881934E-02
  8.188063250974E-02  9.081129607651E-02  1.010233253292E-01  1.126961752791E-01
  1.260331416748E-01  1.412642040043E-01  1.586491277775E-01  1.784808290387E-01
  2.010889973991E-01  2.268439650061E-01  2.459651669536E-01  2.668033144887E-01
  2.895035666404E-01  3.142219239751E-01  3.411258151698E-01  3.703946783452E-01
  4.022205291945E-01  4.368085064429E-01  4.743773834900E-01  5.151600332106E-01
  5.594038308152E-01  6.073709773874E-01  6.593387242208E-01  7.155994753806E-01
  7.764607430137E-01  8.422449268479E-01  9.132888860831E-01  9.899432685151E-01
  1.072571558303E+00  1.161548800364E+00  1.257259956025E+00  1.360097841431E+00
  1.470460597355E+00  1.588748636792E+00  1.715361015005E+00  1.850691166079E+00
  1.995121950432E+00  2.149019959791E+00  2.312729029914E+00  2.398362154659E+00
  2.486562917445E+00  2.577364493724E+00  2.670797105959E+00  2.766887718459E+00
  2.865659718114E+00  2.967132581155E+00  3.071321526156E+00  3.178237153607E+00
  3.287885072482E+00  3.400265514370E+00  3.515372935850E+00  3.633195609954E+00
  3.753715207687E+00  3.876906370786E+00  4.002736277016E+00  4.131164199556E+00
  4.262141062155E+00  4.395608992017E+00  4.531500872528E+00  4.669739898222E+00
  4.810239134576E+00  4.952901085480E+00  5.097617271503E+00  5.244267822269E+00
  5.392721086584E+00  5.542833264144E+00  5.694448062959E+00  5.847396386831E+00
  6.001496057500E+00  6.156551576281E+00  6.312353930216E+00  6.468680447993E+00
  6.625294711004E+00  6.781946525103E+00  6.938371958681E+00  7.094293452782E+00
  7.249420008981E+00  7.403447460712E+00  7.556058833658E+00  7.706924800660E+00
  7.855704236360E+00  8.002044876527E+00  8.145584086614E+00  8.285949743620E+00
  8.422761234787E+00  8.555630575990E+00  8.684163651920E+00  8.807961579291E+00
  8.926622193326E+00  9.039741656694E+00  9.146916188876E+00  9.247743912652E+00
  9.341826812970E+00  9.428772802007E+00  9.508197882615E+00  9.579728400693E+00
  9.643003375322E+00  9.697676893709E+00  9.743420556204E+00  9.779925954848E+00
  9.806907167139E+00  9.824103244948E+00  9.831280676886E+00  9.828235800866E+00
  9.814797142208E+00  9.790827651420E+00  9.756226814807E+00  9.710932610320E+00
  9.654923280633E+00  9.588218895357E+00  9.510882674578E+00  9.423022046613E+00
  9.324789414031E+00  9.216382603581E+00  9.098044977777E+00  8.970065188505E+00
  8.832776556075E+00  8.686556060802E+00  8.531822938212E+00  8.369036873558E+00
  8.198695796226E+00  8.021333279929E+00  7.837515560167E+00  7.647838186203E+00
  7.452922330737E+00  7.253410786343E+00  7.049963683556E+00  6.843253971080E+00
  6.633962703795E+00  6.422774188971E+00  6.210371045239E+00  5.997429232189E+00
  5.784613110998E+00  5.572570598006E+00  5.361928473604E+00  5.153287908165E+00
  4.947220264844E+00  4.744263236082E+00  4.544917366392E+00  4.349643008641E+00
  4.158857754640E+00  3.972934373474E+00  3.792199282855E+00  3.616931569981E+00
  3.447362569183E+00  3.283675994200E+00  3.126008613529E+00  2.974451448119E+00
  2.829051462022E+00  2.689813708616E+00  2.556703887918E+00  2.429651264478E+00
  2.308551890479E+00  2.193272075075E+00  2.083652038722E+00  1.979509690253E+00
  1.880644464719E+00  1.786841161421E+00  1.697873723970E+00  1.613508907526E+00
  1.533509782337E+00  1.457639027230E+00  1.385661971594E+00  1.317349349514E+00
  1.252479735011E+00  1.190841632645E+00  1.132235203213E+00  1.076473609734E+00
  1.023383974644E+00  9.728079450315E-01  9.246018690469E-01  8.786365933162E-01
  8.347968983664E-01  7.929805966234E-01  7.530969500966E-01  7.150634495824E-01
  6.788022225735E-01  6.442391861309E-01  6.113040581253E-01  5.799296876967E-01
  5.500516452304E-01  5.216077983594E-01  4.945379293933E-01  4.687834044180E-01
  4.442869056038E-01  4.209922361663E-01  3.988443051525E-01  3.777895915274E-01
  3.577768371520E-01  3.387571012742E-01  3.206835532252E-01  3.035114563646E-01
  2.871980817467E-01  2.717026327503E-01  2.569861693204E-01  2.430115332357E-01
  2.297432746150E-01  2.171475799642E-01  2.051922019616E-01  1.938463911606E-01
  1.830808297002E-01  1.728675672119E-01  1.631799589113E-01  1.539926059641E-01
  1.452812981457E-01  1.370229587991E-01  1.291955920814E-01  1.217782324712E-01
  1.147508965022E-01  1.080945366708E-01  1.017909974633E-01  9.582297343890E-02
  9.017396929727E-02  8.482826186050E-02  7.977086389180E-02  7.498748967450E-02
  7.046452227318E-02  6.618898239908E-02  6.214849880266E-02  5.833128011791E-02
  5.472608808432E-02  5.132221207536E-02  4.810944486429E-02  4.507805956147E-02
  4.221878765986E-02  3.952279812887E-02  3.698167749957E-02  3.458741088771E-02
  3.233236390372E-02  3.020926540248E-02  2.821119102773E-02  2.633154751038E-02
  2.456405768070E-02  2.290274615863E-02  2.134192568796E-02  1.987618408279E-02
  1.850037175669E-02  1.720958980681E-02  1.599917862717E-02  1.486470702691E-02
  1.380196183073E-02  1.280693794016E-02  1.187582883553E-02  1.100501749952E-02
  1.019106774423E-02  9.430715924581E-03  8.720863021602E-03  8.058567079911E-03
  7.441035984321E-03  6.865620561055E-03  6.329807989612E-03  5.831215511788E-03
  5.367584424783E-03  4.936774345790E-03  4.536757735802E-03  4.165614670811E-03
  3.821527848897E-03  3.502777822115E-03  3.207738442427E-03  2.934872511307E-03
  2.682727623025E-03  2.449932191980E-03  2.235191654848E-03  2.037284838694E-03
  1.855060486602E-03  1.687433932763E-03  1.533383919389E-03  1.391949548189E-03
  1.262227359606E-03  1.143368533359E-03  1.034576204274E-03  9.351028877844E-04
  8.442480098242E-04  7.613555362764E-04  6.858116974441E-04  6.170428033919E-04
  5.545131463249E-04  4.977229864835E-04  4.462066183267E-04  3.995305140468E-04
  3.572915417055E-04  3.191152555108E-04  2.846542559573E-04  2.535866177319E-04
  2.256143834497E-04  2.004621214183E-04  1.778755457487E-04  1.576201972251E-04
  1.394801834233E-04  1.232569766299E-04  1.087682681558E-04  9.584687767007E-05
  8.433971619430E-05  7.410680140781E-05  6.502032390691E-05  5.696376305355E-05
  4.983105103107E-05  4.352578370412E-05  3.796047685646E-05  3.305586635521E-05
  2.874025076553E-05  2.494887491558E-05  2.162335289043E-05  1.871112891480E-05
  1.616497457008E-05  1.394252078081E-05  1.200582300065E-05  1.032095802781E-05
  8.857650885521E-06  7.588930214046E-06  6.490810637409E-06  5.542000590000E-06
  4.723634115302E-06  4.019025181065E-06  3.413443091843E-06  2.893907620482E-06
  2.449002524514E-06  2.068706161014E-06  1.744237963727E-06  1.467919598762E-06
  1.233049669357E-06  1.033790895617E-06  8.650687513135E-07  7.224805962756E-07
  6.022143992868E-07  5.009762022335E-07  4.159255312524E-07  3.446180144524E-07
  2.849545181605E-07  2.351361643377E-07  1.936246406139E-07  1.591072611445E-07
  1.304662810712E-07  1.067520096677E-07  8.715930722122E-08  7.100708829581E-08
  5.772048924147E-08  4.681539067014E-08  3.788501614869E-08  3.058835661746E-08
  2.464019609805E-08  1.980253818865E-08  1.587725475096E-08  1.269979816867E-08
  1.013383670930E-08  8.066688957527E-09  6.405448118431E-09  5.073700326368E-09
  4.008753046611E-09  3.159300332532E-09  2.483461203903E-09  1.947135843328E-09
  1.522631763814E-09  1.187518672287E-09  9.236765274341E-10  7.165063460372E-10
  5.542777248636E-10  4.275908843981E-10  3.289343701114E-10  2.523224248488E-10
  1.929985255155E-10  1.471937067387E-10  1.119301170960E-10  8.486180889699E-11
  6.414608532303E-11  4.833985007473E-11  3.631635211691E-11  2.719851598345E-11
  2.030571779750E-11  1.511142740228E-11  1.120960410514E-11  8.288121686931E-12
  6.107819774935E-12  4.486043977339E-12  3.283755386928E-12  2.395468919139E-12
  1.741426041896E-12  1.261526365020E-12  9.106390007053E-13  6.549925492072E-13
  4.694053279274E-13  3.351678198430E-13  2.384295729215E-13  1.689748432725E-13
  1.192967140470E-13  8.389953104114E-14  5.877533090819E-14  4.101235925219E-14
  2.850348166536E-14  1.972984487890E-14  1.360100129118E-14  9.337231687748E-15
  6.383277972363E-15  4.345360437884E-15  2.945385004664E-15  1.987788025901E-15
  1.335632701958E-15  8.934493892347E-16  5.949705782149E-16  3.944028493850E-16
  2.602434031083E-16  1.709190098225E-16  1.117242603413E-16  7.268190815918E-17
  4.705456863314E-17  3.031436970651E-17  1.943304602365E-17  1.239517929034E-17
  7.866074135158E-18  4.966265285068E-18  3.119187574913E-18  1.948791923955E-18
  1.211083833359E-18  7.485825326505E-19  4.601861225537E-19  2.813370072488E-19
  1.710371307811E-19  1.033937329748E-19  6.214520227348E-20  3.713632076218E-20
  2.206148084137E-20  0.000000000000E+00  0.000000000000E+00  0.000000000000E+00
  0.000000000000E+00  0.000000000000E+00  0.000000000000E+00  0.000000000000E+00
  0.000000000000E+00
</data>
</radfunc>
</valence-charge>
<pseudocore-charge matching-radius="1.05354791819"
 number-of-continuous-derivatives="4">
<annotation model-charge-form="Teter function with specified parameters" />
<radfunc>
<data npts="290">
  5.626193342763E+01  5.625967465627E+01  5.625292213039E+01  5.624165559957E+01
  5.622512160866E+01  5.620402117787E+01  5.617712294843E+01  5.614631386399E+01
  5.611166175697E+01  5.607123772932E+01  5.602565457336E+01  5.597608670362E+01
  5.591615030643E+01  5.585351687149E+01  5.579091081893E+01  5.571875169246E+01
  5.563559626929E+01  5.555671216210E+01  5.546795956693E+01  5.536812181132E+01
  5.525583703277E+01  5.515602970100E+01  5.504642365181E+01  5.492607833260E+01
  5.479396741356E+01  5.464897192056E+01  5.448987302803E+01  5.436049997090E+01
  5.422184850913E+01  5.407327871224E+01  5.391411043436E+01  5.374362140198E+01
  5.356104531397E+01  5.336556997580E+01  5.315633549444E+01  5.293243256532E+01
  5.269290088820E+01  5.243672775521E+01  5.225617607819E+01  5.206742603486E+01
  5.187013739628E+01  5.166395902882E+01  5.144852888534E+01  5.122347404110E+01
  5.098841078028E+01  5.074294473910E+01  5.048667111234E+01  5.021917493036E+01
  4.994003141439E+01  4.964880641846E+01  4.934505696677E+01  4.902833189593E+01
  4.869817261241E+01  4.835411397547E+01  4.799568531718E+01  4.762241161115E+01
  4.723381480231E+01  4.682941531071E+01  4.640873372246E+01  4.597129268145E+01
  4.551661899573E+01  4.504424597251E+01  4.455371599563E+01  4.404458335926E+01
  4.351641737114E+01  4.296880573775E+01  4.240135824311E+01  4.211008111586E+01
  4.181371073134E+01  4.151220634652E+01  4.120552940138E+01  4.089364367055E+01
  4.057651542009E+01  4.025411356924E+01  3.992640985723E+01  3.959337901509E+01
  3.925499894238E+01  3.891125088872E+01  3.856211964017E+01  3.820759371018E+01
  3.784766553509E+01  3.748233167391E+01  3.711159301226E+01  3.673545497020E+01
  3.635392771370E+01  3.596702636949E+01  3.557477124289E+01  3.517718803833E+01
  3.477430808210E+01  3.436616854692E+01  3.395281267783E+01  3.353429001881E+01
  3.311065663968E+01  3.268197536248E+01  3.224831598674E+01  3.180975551298E+01
  3.136637836342E+01  3.091827659926E+01  3.046555013360E+01  3.000830693889E+01
  2.954666324802E+01  2.908074374799E+01  2.861068176483E+01  2.813661943880E+01
  2.765870788841E+01  2.717710736205E+01  2.669198737574E+01  2.620352683568E+01
  2.571191414396E+01  2.521734728601E+01  2.472003389805E+01  2.422019131301E+01
  2.371804658315E+01  2.321383647766E+01  2.270780745354E+01  2.220021559790E+01
  2.169132653992E+01  2.118141533077E+01  2.067076628944E+01  2.015967281303E+01
  1.964843714951E+01  1.913737013134E+01  1.862679086828E+01  1.811702639787E+01
  1.760841129206E+01  1.710128721854E+01  1.659600245570E+01  1.609291135994E+01
  1.559237378459E+01  1.509475444951E+01  1.460042226102E+01  1.410974958182E+01
  1.362311145088E+01  1.314088475362E+01  1.266344734297E+01  1.219117711229E+01
  1.172445102136E+01  1.126364407732E+01  1.080912827251E+01  1.036127148199E+01
  9.920436323503E+00  9.486978983664E+00  9.061248014241E+00  8.643583103077E+00
  8.234313824738E+00  7.833758376435E+00  7.442222305355E+00  7.059997234022E+00
  6.687359590851E+00  6.324569353556E+00  5.971868813535E+00  5.629481369820E+00
  5.297610361582E+00  4.976437948534E+00  4.666124048891E+00  4.366805344769E+00
  4.078594365082E+00  3.801578656055E+00  3.535820049468E+00  3.281354038604E+00
  3.038189271653E+00  2.806307171942E+00  2.585661693890E+00  2.376179222937E+00
  2.177758626933E+00  1.990271465554E+00  1.813562363217E+00  1.647449549788E+00
  1.491725571969E+00  1.346158176744E+00  1.210491366648E+00  1.084446624809E+00
  9.677243058629E-01  8.600051868610E-01  7.609521702353E-01  6.702121288172E-01
  5.874178807880E-01  5.121902803511E-01  4.441404078822E-01  3.828718413590E-01
  3.279829890545E-01  2.790694618287E-01  2.357264619206E-01  1.975511639689E-01
  1.641450631164E-01  1.351162645231E-01  1.100816884620E-01  8.866916543367E-02
  7.051939643672E-02  5.528775469327E-02  4.264590675936E-02  3.228323305473E-02
  2.390803041177E-02  1.724848224917E-02  1.205338538635E-02  8.092626281963E-03
  5.157403541620E-03  3.060197821780E-03  1.634494671150E-03  7.342702997761E-04
  2.332546420644E-04  2.399026949034E-05  1.670959424201E-05  1.380562690961E-04
  3.296796177992E-04  5.467332186814E-04  7.563103193626E-04  9.358495065791E-04
  1.071543938269E-03  1.156786436536E-03  1.190680840306E-03  1.176647257214E-03
  1.121145300162E-03  1.032535142811E-03  9.200914093852E-04  7.931796856836E-04
  6.605999821955E-04  5.300959967303E-04  4.080237227093E-04  2.991680410296E-04
  2.066916196108E-04  1.321969071689E-04  7.587939800513E-05  3.674877438686E-05
  1.289406592738E-05  1.769610303340E-06  4.803077576085E-07  6.047325937694E-06
  1.563886965909E-05  2.675467238859E-05  3.735724603083E-05  4.594737378422E-05
  5.158557245382E-05  5.386502340123E-05  5.284454450260E-05  4.895236750020E-05
  4.287267864511E-05  3.542703334512E-05  2.746190600179E-05  1.975190217400E-05
  1.292573095984E-05  7.419157028847E-06  3.456105907731E-06  1.056175345876E-06
  6.428526936726E-08  1.963101192961E-07  1.093443151767E-06  2.377819311278E-06
  3.702552906941E-06  4.790715431503E-06  5.459691902464E-06  5.629555280324E-06
  5.316302318598E-06  4.612720840901E-06  3.661069942004E-06  2.622486654352E-06
  1.648017491737E-06  8.554500053190E-07  3.148288630120E-07  4.390523465926E-08
  0.000000000000E+00  0.000000000000E+00  0.000000000000E+00  0.000000000000E+00
  0.000000000000E+00  0.000000000000E+00  0.000000000000E+00  0.000000000000E+00
  0.000000000000E+00  0.000000000000E+00  0.000000000000E+00  0.000000000000E+00
  0.000000000000E+00  0.000000000000E+00  0.000000000000E+00  0.000000000000E+00
  0.000000000000E+00  0.000000000000E+00  0.000000000000E+00  0.000000000000E+00
  0.000000000000E+00  0.000000000000E+00  0.000000000000E+00  0.000000000000E+00
  0.000000000000E+00  0.000000000000E+00  0.000000000000E+00  0.000000000000E+00
  0.000000000000E+00  0.000000000000E+00
</data>
</radfunc>
</pseudocore-charge>
<semilocal-potentials set="scalar_relativistic">
<slps n="6" l="s" rc="2.42823194665" eref="-0.452800149351">
<radfunc>
<data npts="290">
  3.635300654365E+00  3.633089768364E+00  3.626483371696E+00  3.615470549553E+00
  3.599331244689E+00  3.578773046732E+00  3.552628509423E+00  3.522768404426E+00
  3.489292520922E+00  3.450385573214E+00  3.406699284135E+00  3.359416643727E+00
  3.302550944875E+00  3.243483122070E+00  3.184802341942E+00  3.117611363270E+00
  3.040764837630E+00  2.968437014344E+00  2.887718426183E+00  2.797740107244E+00
  2.697569640462E+00  2.609429211591E+00  2.513595988952E+00  2.409514019071E+00
  2.296609609603E+00  2.174295484381E+00  2.041976054328E+00  1.935810988456E+00
  1.823431594079E+00  1.704591737324E+00  1.579051784293E+00  1.446581320192E+00
  1.306962148890E+00  1.159991569672E+00  1.005485921455E+00  8.432843770665E-01
  6.732529616963E-01  4.952887601557E-01  3.722039290824E-01  2.455522469739E-01
  1.153318269580E-01 -1.845017245108E-02 -1.557769686032E-01 -2.966215884201E-01
 -4.409463200634E-01 -5.887021883492E-01 -7.398284599227E-01 -8.942521843719E-01
 -1.051887777544E+00 -1.212636653336E+00 -1.376386910139E+00 -1.543013077939E+00
 -1.712375931784E+00 -1.884322376955E+00 -2.058685410653E+00 -2.235284164478E+00
 -2.413924031242E+00 -2.594396878938E+00 -2.776481353817E+00 -2.959943273684E+00
 -3.144536111572E+00 -3.330001569045E+00 -3.516070237473E+00 -3.702462344739E+00
 -3.888888584049E+00 -4.075051020806E+00 -4.260644072911E+00 -4.353129750957E+00
 -4.445355559447E+00 -4.537281627108E+00 -4.628867812403E+00 -4.720073741334E+00
 -4.810858846035E+00 -4.901182404095E+00 -4.991003578585E+00 -5.080281458761E+00
 -5.168975101397E+00 -5.257043572738E+00 -5.344445991040E+00 -5.431141569674E+00
 -5.517089660791E+00 -5.602249799531E+00 -5.686581748765E+00 -5.770045544384E+00
 -5.852601541124E+00 -5.934210458953E+00 -6.014833430021E+00 -6.094432046210E+00
 -6.172968407295E+00 -6.250405169760E+00 -6.326705596297E+00 -6.401833606039E+00
 -6.475753825560E+00 -6.548431640699E+00 -6.619833249258E+00 -6.689925714620E+00
 -6.758677020356E+00 -6.826056125853E+00 -6.892033023035E+00 -6.956578794210E+00
 -7.019665671099E+00 -7.081267095078E+00 -7.141357778656E+00 -7.199913768216E+00
 -7.256912508025E+00 -7.312332905484E+00 -7.366155397605E+00 -7.418362018654E+00
 -7.468936468882E+00 -7.517864184231E+00 -7.565132406890E+00 -7.610730256503E+00
 -7.654648801829E+00 -7.696881132581E+00 -7.737422431137E+00 -7.776270043750E+00
 -7.813423550853E+00 -7.848884835946E+00 -7.882658152534E+00 -7.914750188495E+00
 -7.945170127171E+00 -7.973929704423E+00 -8.001043260797E+00 -8.026527787872E+00
 -8.050402967786E+00 -8.072691204845E+00 -8.093417648044E+00 -8.112610203274E+00
 -8.130299533875E+00 -8.146519048187E+00 -8.161304872644E+00 -8.174695808942E+00
 -8.186733273773E+00 -8.197461219607E+00 -8.206926034984E+00 -8.215176422831E+00
 -8.222263255350E+00 -8.228239404092E+00 -8.233159543948E+00 -8.237079929891E+00
 -8.240058145524E+00 -8.242152822609E+00 -8.243423331066E+00 -8.243929439153E+00
 -8.243730943867E+00 -8.242887271940E+00 -8.241457052218E+00 -8.239497660562E+00
 -8.237064738928E+00 -8.234211690694E+00 -8.230989154822E+00 -8.227444461947E+00
 -8.223621075987E+00 -8.219558025409E+00 -8.215289328766E+00 -8.210843419664E+00