<?xml version="1.0" encoding="UTF-8" ?>
<psml version="1.1" energy_unit="hartree" length_unit="bohr"
 uuid="24783750-23d3-11e8-4d01-9f307bfc3101"
 xmlns="http://esl.cecam.org/PSML/ns/1.1">
<provenance creator="ONCVPSP-3.3.0+psml-3.3.0-73 (scalar-relativistic)"
 date="2018-03-09">
<annotation action="semilocal-pseudopotential-generation"
 action-cont="projectors-generation" />
<input-file name="oncvpsp-input">
<![CDATA[# atsym z nc nv iexc psfile
Pd 46 6 3 -001012 upf
# n l f
1 0 2.0
2 0 2.0
2 1 6.0
3 0 2.0
3 1 6.0
3 2 10.0
4 0 2.0
4 1 6.0
4 2 10.0
# lmax
2
# l rc ep ncon nbas qcut
0 1.4 0.0 4 7 8.8
1 1.45 0.0 4 7 8.8
2 1.55 0.0 4 7 8.8
# lloc lpopt rc5 dvloc0
4 5 1.4 0.0
# l nproj debl
0 2 3.0
1 2 1.8
2 2 1.5
# icmod fcfact rcfact
3 7.0 1.23
# epsh1 epsh2 depsh
-14.0 12.0 0.02
# rlmax drl
6.0 0.01
 0
]]>
</input-file>
</provenance>
<pseudo-atom-spec atomic-label="Pd" atomic-number="46" z-pseudo="18"
 flavor="Hamann&apos;s oncvpsp" relativity="scalar" spin-dft="no"
 core-corrections="yes">
<annotation pseudo-energy="-128.367888652" />
<exchange-correlation>
<annotation oncvpsp-xc-code="-1012" oncvpsp-xc-type="libxc-interface" />
<libxc-info number-of-functionals="2">
<functional name="Slater exchange (LDA)" type="exchange" id="1" />
<functional name="Perdew &amp; Wang (LDA)" type="correlation" id="12" />
</libxc-info>
</exchange-correlation>
<valence-configuration total-valence-charge="18">
<shell n="4" l="s" occupation="2" />
<shell n="4" l="p" occupation="6" />
<shell n="4" l="d" occupation="10" />
</valence-configuration>
</pseudo-atom-spec>
<grid npts="457">
<annotation type="sampled from oncvpsp log grid"
 recipe="r(i:1..N) = r1*exp(a*(i-1)) + r=0; resampled"
 recipe-cont="r1: scale; a: step" scale="0.108695652174E-04"
 step="0.119285708653E-01" delta="0.500000000000E-02" rmax="44.3145279533" />
<grid-data>
  0.000000000000E+00  5.000294685022E-03  1.010754857899E-02  1.516293462264E-02
  2.018903507460E-02  2.532475777372E-02  3.065021322792E-02  3.579152166903E-02
  4.080992534112E-02  4.598020733843E-02  5.119122683222E-02  5.631701633006E-02
  6.195605232738E-02  6.735150821743E-02  7.321682852214E-02  7.864914178183E-02
  8.448450483140E-02  8.967670148086E-02  9.518799695324E-02  1.010380022274E-01
  1.072475335217E-01  1.124888205185E-01  1.179862540997E-01  1.237523523875E-01
  1.298002452770E-01  1.361437043330E-01  1.427971741499E-01  1.479998075521E-01
  1.533919922845E-01  1.589806344088E-01  1.647728916001E-01  1.707761823144E-01
  1.769981952897E-01  1.834468993934E-01  1.901305538283E-01  1.970577187110E-01
  2.042372660348E-01  2.116783910330E-01  2.167891541061E-01  2.220233114428E-01
  2.273838422743E-01  2.328737977622E-01  2.384963027354E-01  2.442545574686E-01
  2.501518395041E-01  2.561915055171E-01  2.623769932263E-01  2.687118233508E-01
  2.751996016138E-01  2.818440207951E-01  2.886488628332E-01  2.956180009774E-01
  3.027554019930E-01  3.100651284188E-01  3.175513408793E-01  3.252183004535E-01
  3.330703710996E-01  3.411120221395E-01  3.493478308020E-01  3.577824848289E-01
  3.664207851426E-01  3.752676485791E-01  3.843281106864E-01  3.936073285908E-01
  4.031105839323E-01  4.128432858707E-01  4.228109741648E-01  4.278847058548E-01
  4.330193223250E-01  4.382155541929E-01  4.434741408433E-01  4.487958305334E-01
  4.541813804998E-01  4.596315570658E-01  4.651471357506E-01  4.707289013796E-01
  4.763776481961E-01  4.820941799745E-01  4.878793101342E-01  4.937338618558E-01
  4.996586681980E-01  5.056545722164E-01  5.117224270830E-01  5.178630962080E-01
  5.240774533625E-01  5.303663828029E-01  5.367307793965E-01  5.431715487493E-01
  5.496896073342E-01  5.562858826223E-01  5.629613132137E-01  5.697168489723E-01
  5.765534511600E-01  5.834720925739E-01  5.904737576848E-01  5.975594427770E-01
  6.047301560903E-01  6.119869179634E-01  6.193307609790E-01  6.267627301107E-01
  6.342838828720E-01  6.418952894665E-01  6.495980329401E-01  6.573932093354E-01
  6.652819278474E-01  6.732653109816E-01  6.813444947133E-01  6.895206286499E-01
  6.977948761937E-01  7.061684147080E-01  7.146424356845E-01  7.232181449127E-01
  7.318967626517E-01  7.406795238035E-01  7.495676780892E-01  7.585624902262E-01
  7.676652401089E-01  7.768772229902E-01  7.861997496661E-01  7.956341466621E-01
  8.051817564221E-01  8.148439374991E-01  8.246220647491E-01  8.345175295261E-01
  8.445317398804E-01  8.546661207590E-01  8.649221142081E-01  8.753011795786E-01
  8.858047937335E-01  8.964344512583E-01  9.071916646734E-01  9.180779646495E-01
  9.290949002253E-01  9.402440390280E-01  9.515269674964E-01  9.629452911063E-01
  9.745006345996E-01  9.861946422148E-01  9.980289779214E-01  1.010005325656E+00
  1.022125389564E+00  1.034390894239E+00  1.046803584970E+00  1.059365227990E+00
  1.072077610725E+00  1.084942542054E+00  1.097961852559E+00  1.111137394790E+00
  1.124471043527E+00  1.137964696049E+00  1.151620272402E+00  1.165439715671E+00
  1.179424992259E+00  1.193578092166E+00  1.207901029272E+00  1.222395841623E+00
  1.237064591723E+00  1.251909366823E+00  1.266932279225E+00  1.282135466576E+00
  1.297521092175E+00  1.313091345281E+00  1.328848441424E+00  1.344794622721E+00
  1.360932158194E+00  1.377263344092E+00  1.393790504221E+00  1.410515990272E+00
  1.427442182155E+00  1.444571488341E+00  1.461906346201E+00  1.479449222356E+00
  1.497202613024E+00  1.515169044380E+00  1.533351072913E+00  1.551751285788E+00
  1.570372301217E+00  1.589216768832E+00  1.608287370058E+00  1.627586818499E+00
  1.647117860321E+00  1.666883274644E+00  1.686885873940E+00  1.707128504427E+00
  1.727614046480E+00  1.748345415038E+00  1.769325560019E+00  1.790557466739E+00
  1.812044156340E+00  1.833788686216E+00  1.855794150450E+00  1.878063680256E+00
  1.900600444419E+00  1.923407649752E+00  1.946488541549E+00  1.969846404048E+00
  1.993484560896E+00  2.017406375627E+00  2.041615252134E+00  2.066114635160E+00
  2.090908010782E+00  2.115998906911E+00  2.141390893794E+00  2.167087584520E+00
  2.193092635534E+00  2.219409747160E+00  2.246042664126E+00  2.272995176096E+00
  2.300271118209E+00  2.327874371628E+00  2.355808864087E+00  2.384078570456E+00
  2.412687513302E+00  2.441639763461E+00  2.470939440623E+00  2.500590713910E+00
  2.530597802477E+00  2.560964976107E+00  2.591696555820E+00  2.622796914490E+00
  2.654270477464E+00  2.686121723193E+00  2.718355183872E+00  2.750975446078E+00
  2.783987151431E+00  2.817394997248E+00  2.851203737215E+00  2.885418182062E+00
  2.920043200247E+00  2.955083718650E+00  2.990544723273E+00  3.026431259953E+00
  3.062748435072E+00  3.099501416293E+00  3.136695433289E+00  3.174335778488E+00
  3.212427807830E+00  3.250976941524E+00  3.289988664822E+00  3.329468528800E+00
  3.369422151146E+00  3.409855216959E+00  3.450773479563E+00  3.492182761318E+00
  3.534088954453E+00  3.576498021907E+00  3.619415998170E+00  3.662848990148E+00
  3.706803178030E+00  3.751284816166E+00  3.796300233960E+00  3.841855836767E+00
  3.887958106809E+00  3.934613604090E+00  3.981828967339E+00  4.029610914947E+00
  4.077966245927E+00  4.126901840878E+00  4.176424662968E+00  4.226541758924E+00
  4.277260260031E+00  4.328587383152E+00  4.380530431749E+00  4.433096796930E+00
  4.486293958494E+00  4.540129485995E+00  4.594611039827E+00  4.649746372305E+00
  4.705543328773E+00  4.762009848718E+00  4.819153966903E+00  4.876983814506E+00
  4.935507620280E+00  4.994733711723E+00  5.054670516264E+00  5.115326562459E+00
  5.176710481208E+00  5.238831006983E+00  5.301696979067E+00  5.365317342816E+00
  5.429701150929E+00  5.494857564741E+00  5.560795855517E+00  5.627525405784E+00
  5.695055710653E+00  5.763396379181E+00  5.832557135731E+00  5.902547821360E+00
  5.973378395216E+00  6.045058935959E+00  6.117599643190E+00  6.191010838909E+00
  6.265302968975E+00  6.340486604603E+00  6.416572443858E+00  6.493571313185E+00
  6.571494168943E+00  6.650352098970E+00  6.730156324158E+00  6.810918200048E+00
  6.892649218448E+00  6.975361009070E+00  7.059065341179E+00  7.143774125273E+00
  7.229499414776E+00  7.316253407753E+00  7.404048448646E+00  7.492897030030E+00
  7.582811794390E+00  7.673805535923E+00  7.765891202354E+00  7.859081896782E+00
  7.953390879544E+00  8.048831570098E+00  8.145417548939E+00  8.243162559527E+00
  8.342080510241E+00  8.442185476364E+00  8.543491702080E+00  8.646013602505E+00
  8.749765765735E+00  8.854762954924E+00  8.961020110383E+00  9.068552351708E+00
  9.177374979928E+00  9.287503479688E+00  9.398953521444E+00  9.511740963701E+00
  9.625881855266E+00  9.741392437529E+00  9.858289146779E+00  9.976588616540E+00
  1.009630767994E+01  1.021746337210E+01  1.034007293256E+01  1.046415380775E+01
  1.058972365345E+01  1.071680033729E+01  1.084540194134E+01  1.097554676463E+01
  1.110725332581E+01  1.124054036572E+01  1.137542685011E+01  1.151193197231E+01
  1.165007515597E+01  1.178987605785E+01  1.193135457054E+01  1.207453082539E+01
  1.221942519529E+01  1.236605829764E+01  1.251445099721E+01  1.266462440917E+01
  1.281659990208E+01  1.297039910091E+01  1.312604389012E+01  1.328355641680E+01
  1.344295909380E+01  1.360427460293E+01  1.376752589816E+01  1.393273620894E+01
  1.409992904345E+01  1.426912819197E+01  1.444035773027E+01  1.461364202304E+01
  1.478900572731E+01  1.496647379604E+01  1.514607148159E+01  1.532782433937E+01
  1.551175823145E+01  1.569789933022E+01  1.588627412219E+01  1.607690941165E+01
  1.626983232459E+01  1.646507031249E+01  1.666265115624E+01  1.686260297011E+01
  1.706495420575E+01  1.726973365622E+01  1.747697046010E+01  1.768669410562E+01
  1.789893443488E+01  1.811372164810E+01  1.833108630788E+01  1.855105934357E+01
  1.877367205570E+01  1.899895612037E+01  1.922694359381E+01  1.945766691694E+01
  1.969115891994E+01  1.992745282698E+01  2.016658226090E+01  2.040858124803E+01
  2.065348422301E+01  2.090132603369E+01  2.115214194609E+01  2.140596764944E+01
  2.166283926124E+01  2.192279333237E+01  2.218586685236E+01  2.245209725459E+01
  2.272152242164E+01  2.299418069070E+01  2.327011085899E+01  2.354935218930E+01
  2.383194441557E+01  2.411792774856E+01  2.440734288154E+01  2.470023099612E+01
  2.499663376807E+01  2.529659337329E+01  2.560015249377E+01  2.590735432369E+01
  2.621824257558E+01  2.653286148649E+01  2.685125582432E+01  2.717347089421E+01
  2.749955254495E+01  2.782954717548E+01  2.816350174159E+01  2.850146376249E+01
  2.884348132764E+01  2.918960310357E+01  2.953987834081E+01  2.989435688090E+01
  3.025308916347E+01  3.061612623344E+01  3.098351974824E+01  3.135532198522E+01
  3.173158584904E+01  3.211236487923E+01  3.249771325778E+01  3.288768581687E+01
  3.328233804667E+01  3.368172610323E+01  3.408590681647E+01  3.449493769827E+01
  3.490887695065E+01  3.532778347406E+01  3.575171687575E+01  3.618073747826E+01
  3.661490632799E+01  3.705428520393E+01  3.749893662638E+01  3.794892386589E+01
  3.840431095228E+01  3.886516268371E+01  3.933154463592E+01  3.980352317155E+01
  4.028116544961E+01  4.076453943500E+01  4.125371390822E+01  4.174875847512E+01
  4.224974357682E+01  4.275674049974E+01  4.326982138574E+01  4.378905924237E+01
  4.431452795328E+01
</grid-data>
</grid>
<valence-charge total-charge="18" is-unscreening-charge="yes"
 rescaled-to-z-pseudo="no">
<radfunc>
<data npts="457">
  1.487070643068E+00  1.489046249070E+00  1.495143352032E+00  1.505239395229E+00
  1.519283752106E+00  1.537763678016E+00  1.561337625735E+00  1.588361395217E+00
  1.618784325551E+00  1.654312381239E+00  1.694423023887E+00  1.738097668405E+00
  1.790987663179E+00  1.846349767275E+00  1.911819135776E+00  1.977375430099E+00
  2.053076008808E+00  2.125038575946E+00  2.206176015510E+00  2.297661779046E+00
  2.400819094770E+00  2.492744595553E+00  2.593940439258E+00  2.705340732068E+00
  2.827971834925E+00  2.962960560185E+00  3.111542740961E+00  3.232709719934E+00
  3.362899317448E+00  3.502771174325E+00  3.653029116237E+00  3.814423015433E+00
  3.987750437803E+00  4.173857981609E+00  4.373642192305E+00  4.588049911958E+00
  4.818077891587E+00  5.064771459621E+00  5.239029667531E+00  5.421512964855E+00
  5.612562943778E+00  5.812527915920E+00  6.021761803534E+00  6.240622795510E+00
  6.469471738164E+00  6.708670228192E+00  6.958578372631E+00  7.219552178202E+00
  7.491940530008E+00  7.776081717475E+00  8.072299463611E+00  8.380898412343E+00
  8.702159028049E+00  9.036331861511E+00  9.383631137771E+00  9.744227623825E+00
  1.011824073823E+01  1.050572987067E+01  1.090668488784E+01  1.132101581279E+01
  1.174854167905E+01  1.218897857801E+01  1.264192693960E+01  1.310685811172E+01
  1.358310033443E+01  1.406982423985E+01  1.456602804971E+01  1.481732105348E+01
  1.507052268781E+01  1.532545263951E+01  1.558191707611E+01  1.583970821985E+01
  1.609860393872E+01  1.635836735833E+01  1.661874649832E+01  1.687947393763E+01
  1.714026651280E+01  1.740082505421E+01  1.766083416485E+01  1.791996204705E+01
  1.817786038220E+01  1.843416426935E+01  1.868849222810E+01  1.894044627189E+01
  1.918961205771E+01  1.943555911823E+01  1.967784118259E+01  1.991599659211E+01
  2.014954881691E+01  2.037800707958E+01  2.060086709180E+01  2.081761190932E+01
  2.102771291096E+01  2.123063090620E+01  2.142581737599E+01  2.161271585056E+01
  2.179076342732E+01  2.195939243129E+01  2.211803221944E+01  2.226611112940E+01
  2.240305857183E+01  2.252830726450E+01  2.264129560472E+01  2.274147017540E+01
  2.282828837826E+01  2.290122118618E+01  2.295975600478E+01  2.300339963148E+01
  2.303168129842E+01  2.304415578348E+01  2.304040657177E+01  2.302004904778E+01
  2.298273369653E+01  2.292814928985E+01  2.285602603218E+01  2.276613863853E+01
  2.265830931538E+01  2.253241061403E+01  2.238836812456E+01  2.222616297776E+01
  2.204583412144E+01  2.184748033757E+01  2.163126196662E+01  2.139740230592E+01
  2.114618865028E+01  2.087797294397E+01  2.059317201601E+01  2.029226737262E+01
  1.997580452441E+01  1.964439182925E+01  1.929869883640E+01  1.893945412207E+01
  1.856744261225E+01  1.818350239416E+01  1.778852102428E+01  1.738343134721E+01
  1.696920684670E+01  1.654685655692E+01  1.611741956939E+01  1.568195917753E+01
  1.524155670783E+01  1.479730509275E+01  1.435030224648E+01  1.390164430963E+01
  1.345241883361E+01  1.300369797858E+01  1.255653180152E+01  1.211194171216E+01
  1.167091417444E+01  1.123439472989E+01  1.080328241692E+01  1.037842465564E+01
  9.960612662741E+00  9.550577454342E+00  9.148986486829E+00  8.756440976679E+00
  8.373473930539E+00  8.000548905914E+00  7.638059511522E+00  7.286329644473E+00
  6.945614449357E+00  6.616101972148E+00  6.297915469885E+00  5.991116325551E+00
  5.695707506673E+00  5.411637496217E+00  5.138804615559E+00  4.877061651965E+00
  4.626220971153E+00  4.386060796436E+00  4.156332008927E+00  3.936763175109E+00
  3.727068301661E+00  3.526955964869E+00  3.336131642393E+00  3.154299514200E+00
  2.981163449766E+00  2.816426479908E+00  2.659789861076E+00  2.510954230084E+00
  2.369621284096E+00  2.235494787035E+00  2.108281663625E+00  1.987692941066E+00
  1.873444581047E+00  1.765258204025E+00  1.662861712394E+00  1.565989818712E+00
  1.474384485336E+00  1.387795281774E+00  1.305979666038E+00  1.228703196155E+00
  1.155739677855E+00  1.086871254274E+00  1.021888443323E+00  9.605901280903E-01
  9.027835054633E-01  8.482839978295E-01  7.969151324793E-01  7.485083930340E-01
  7.029030469405E-01  6.599459527892E-01  6.194913509272E-01  5.814006405571E-01
  5.455421462424E-01  5.117908764742E-01  4.800282766971E-01  4.501419789522E-01
  4.220255500568E-01  3.955782400265E-01  3.707047322313E-01  3.473148965892E-01
  3.253235469150E-01  3.046502033763E-01  2.852188608544E-01  2.669577638641E-01
  2.497991885592E-01  2.336792322312E-01  2.185376106051E-01  2.043174631390E-01
  1.909651664534E-01  1.784301559394E-01  1.666647555306E-01  1.556240155687E-01
  1.452655586423E-01  1.355494332408E-01  1.264379750265E-01  1.178956755068E-01
  1.098890578591E-01  1.023865596493E-01  9.535842216971E-02  8.877658611387E-02
  8.261459330047E-02  7.684749415782E-02  7.145176067949E-02  6.640520456567E-02
  6.168690026948E-02  5.727711267413E-02  5.315722913452E-02  4.930969562627E-02
  4.571795675440E-02  4.236639938484E-02  3.924029967248E-02  3.632577327059E-02
  3.360972851782E-02  3.107982241002E-02  2.872441917533E-02  2.653255128189E-02
  2.449388271799E-02  2.259867439504E-02  2.083775153334E-02  1.920247290029E-02
  1.768470177979E-02  1.627677855980E-02  1.497149483362E-02  1.376206891769E-02
  1.264212269603E-02  1.160565970808E-02  1.064704440290E-02  9.760982488685E-03
  8.942502311453E-03  8.186937202275E-03  7.489908736549E-03  6.847310853251E-03
  6.255294785871E-03  5.710254760296E-03  5.208814418145E-03  4.747813926998E-03
  4.324297741680E-03  3.935502983207E-03  3.578848404243E-03  3.251923911971E-03
  2.952480621122E-03  2.678421411612E-03  2.427791966764E-03  2.198772269517E-03
  1.989668535280E-03  1.798905561284E-03  1.625019473335E-03  1.466650851857E-03
  1.322538220030E-03  1.191511877630E-03  1.072488064960E-03  9.644634419723E-04
  8.665098683158E-04  7.777694706802E-04  6.974499843628E-04  6.248203565224E-04
  5.592065990885E-04  4.999878797683E-04  4.465928400400E-04  3.984961294503E-04
  3.552151459371E-04  3.163069722863E-04  2.813654992036E-04  2.500187258373E-04
  2.219262289318E-04  1.967767921219E-04  1.742861871970E-04  1.541950994768E-04
  1.362671897370E-04  1.202872854165E-04  1.060596941232E-04  9.340663272841E-05
  8.216676561109E-05  7.219384587491E-05  6.335545361635E-05  5.553182557223E-05
  4.861477071779E-05  4.250666662450E-05  3.711953161788E-05  3.237416800181E-05
  2.819937183569E-05  2.453120496543E-05  2.131232521783E-05  1.849137087103E-05
  1.602239571099E-05  1.386435117553E-05  1.198061227319E-05  1.033854414426E-05
  8.909106305160E-06  7.666491785954E-06  6.587798532709E-06  5.652730603060E-06
  4.843326833648E-06  4.143714802665E-06  3.539888049291E-06  3.019504644507E-06
  2.571705334571E-06  2.186949599447E-06  1.856868083712E-06  1.574129967052E-06
  1.332323945398E-06  1.125851592297E-06  9.498319631688E-07  8.000163930093E-07
  6.727125208398E-07  5.647166519797E-07  4.732536422019E-07  3.959235561415E-07
  3.306544161634E-07  2.756604174157E-07  2.294050401837E-07  1.905685420964E-07
  1.580193604038E-07  1.307889986234E-07  1.080500125381E-07  8.909674798721E-08
  7.332851732014E-08  6.023493295125E-08  4.938314533805E-08  4.040675907953E-08
  3.299622485861E-08  2.689052679530E-08  2.187000458977E-08  1.775016776634E-08
  1.437637552231E-08  1.161927027655E-08  9.370866129147E-09  7.541205209552E-09
  6.055505419435E-09  4.851732478161E-09  3.878537553489E-09  3.093509203313E-09
  2.461694953903E-09  1.954353677964E-09  1.547905087718E-09  1.223047193847E-09
  9.640165643834E-10  7.579697062929E-10  5.944670061674E-10  4.650425457088E-10
  3.628506843464E-10  2.823606135226E-10  0.000000000000E+00  0.000000000000E+00
  0.000000000000E+00  0.000000000000E+00  0.000000000000E+00  0.000000000000E+00
  0.000000000000E+00  0.000000000000E+00  0.000000000000E+00  0.000000000000E+00
  0.000000000000E+00  0.000000000000E+00  0.000000000000E+00  0.000000000000E+00
  0.000000000000E+00  0.000000000000E+00  0.000000000000E+00  0.000000000000E+00
  0.000000000000E+00  0.000000000000E+00  0.000000000000E+00  0.000000000000E+00
  0.000000000000E+00  0.000000000000E+00  0.000000000000E+00  0.000000000000E+00
  0.000000000000E+00  0.000000000000E+00  0.000000000000E+00  0.000000000000E+00
  0.000000000000E+00  0.000000000000E+00  0.000000000000E+00  0.000000000000E+00
  0.000000000000E+00  0.000000000000E+00  0.000000000000E+00  0.000000000000E+00
  0.000000000000E+00  0.000000000000E+00  0.000000000000E+00  0.000000000000E+00
  0.000000000000E+00  0.000000000000E+00  0.000000000000E+00  0.000000000000E+00
  0.000000000000E+00  0.000000000000E+00  0.000000000000E+00  0.000000000000E+00
  0.000000000000E+00  0.000000000000E+00  0.000000000000E+00  0.000000000000E+00
  0.000000000000E+00  0.000000000000E+00  0.000000000000E+00  0.000000000000E+00
  0.000000000000E+00  0.000000000000E+00  0.000000000000E+00  0.000000000000E+00
  0.000000000000E+00  0.000000000000E+00  0.000000000000E+00  0.000000000000E+00
  0.000000000000E+00  0.000000000000E+00  0.000000000000E+00  0.000000000000E+00
  0.000000000000E+00  0.000000000000E+00  0.000000000000E+00  0.000000000000E+00
  0.000000000000E+00  0.000000000000E+00  0.000000000000E+00  0.000000000000E+00
  0.000000000000E+00  0.000000000000E+00  0.000000000000E+00  0.000000000000E+00
  0.000000000000E+00
</data>
</radfunc>
</valence-charge>
<pseudocore-charge matching-radius="0.634283882872"
 number-of-continuous-derivatives="4">
<annotation model-charge-form="Teter function with specified parameters" />
<radfunc>
<data npts="290">
  1.574956754523E+02  1.574752359438E+02  1.574121748741E+02  1.573078175369E+02
  1.571627809802E+02  1.569721721712E+02  1.567294063569E+02  1.564516422542E+02
  1.561396114740E+02  1.557761154948E+02  1.553668853868E+02  1.549226718580E+02
  1.543866368603E+02  1.538277647643E+02  1.531697573454E+02  1.525139852092E+02
  1.517605600950E+02  1.510480882741E+02  1.502491042992E+02  1.493536365052E+02
  1.483507068685E+02  1.474629326560E+02  1.464920114799E+02  1.454307857796E+02
  1.442716138446E+02  1.430063660451E+02  1.416264287610E+02  1.405107633115E+02
  1.393214864403E+02  1.380544682847E+02  1.367054593605E+02  1.352701063150E+02
  1.337439717243E+02  1.321225584831E+02  1.304013393724E+02  1.285757924251E+02
  1.266414427364E+02  1.245939113803E+02  1.231639165424E+02  1.216805345471E+02
  1.201426163972E+02  1.185490758697E+02  1.168989007423E+02  1.151911648958E+02
  1.134250413085E+02  1.115998159530E+02  1.097149025927E+02  1.077698584681E+02
  1.057644008474E+02  1.036984244006E+02  1.015720193389E+02  9.938549024153E+01
  9.713937546728E+01  9.483446702473E+01  9.247183074417E+01  9.005282656448E+01
  8.757912871288E+01  8.505274551922E+01  8.247603856653E+01  7.985174083880E+01
  7.718297348357E+01  7.447326076373E+01  7.172654272945E+01  6.894718509890E+01
  6.613998579769E+01  6.331017757164E+01  6.046342605960E+01  5.903558382181E+01
  5.760582269345E+01  5.617496851681E+01  5.474387178421E+01  5.331340687198E+01
  5.188447115947E+01  5.045798402871E+01  4.903488574057E+01  4.761613618366E+01
  4.620271349258E+01  4.479561253250E+01  4.339584324763E+01  4.200442887158E+01
  4.062240399829E+01  3.925081251301E+01  3.789070538326E+01  3.654313831092E+01
  3.520916924719E+01  3.388985577330E+01  3.258625235089E+01  3.129940744691E+01
  3.003036053942E+01  2.878013901161E+01  2.754975494272E+01  2.634020180613E+01
  2.515245108589E+01  2.398744882482E+01  2.284611211853E+01  2.172932557117E+01
  2.063793773038E+01  1.957275752031E+01  1.853455069286E+01  1.752403631894E+01
  1.654188334277E+01  1.558870722330E+01  1.466506668832E+01  1.377146062739E+01
  1.290832515093E+01  1.207603084306E+01  1.127488023659E+01  1.050510553836E+01
  9.766866633197E+00  9.060249394451E+00  8.385264328086E+00  7.741845576448E+00
  7.129850306270E+00  6.549058503677E+00  5.999173196691E+00  5.479821123114E+00
  4.990553858546E+00  4.530849415848E+00  4.100114323417E+00  3.697686185365E+00
  3.322836721996E+00  2.974775283978E+00  2.652652828290E+00  2.355566338434E+00
  2.082563665713E+00  1.832648762441E+00  1.604787272134E+00  1.397912435832E+00
  1.210931268095E+00  1.042730950758E+00  8.921853875493E-01  7.581618581595E-01
  6.395277064355E-01  5.351569942591E-01  4.439370503745E-01  3.647748421339E-01
  2.966030979126E-01  2.383861088900E-01  1.891251410920E-01  1.478633920723E-01
  1.136904314193E-01  8.574607040254E-02  6.322361347958E-02  4.537245301496E-02
  3.149997829844E-02  2.097278066053E-02  1.321714798055E-02  7.718853955075E-03
  4.022259890326E-03  1.728759222177E-03  4.946071468156E-04  2.818934382147E-05
  8.679446109439E-05  4.729644805105E-04  1.030504979322E-03  1.640243355531E-03
  2.215627043655E-03  2.698255408806E-03  3.053438232430E-03  3.265870426500E-03
  3.335506850786E-03  3.273712965538E-03  3.099756727339E-03  2.837694918971E-03
  2.513693372394E-03  2.153805753147E-03  1.782220244923E-03  1.419968171196E-03
  1.084073906381E-03  7.871119493148E-04  5.371253132162E-04  3.378499242389E-04
  1.891829215160E-04  8.782890509131E-05  2.805743566981E-05  2.507448223676E-06
  2.979533481126E-06  2.116493842681E-05  4.927015954855E-05  8.050754230487E-05
  1.094346522618E-04  1.321375874314E-04  1.462650903612E-04  1.509305703660E-04
  1.465073363297E-04  1.343479901127E-04  1.164617474976E-04  9.518335979448E-05
  7.286445304489E-05  5.161285143685E-05  3.309836930850E-05  1.843535344058E-05
  8.143734071018E-06  2.182314972966E-06  4.125408073631E-08  8.757736265286E-07
  3.660508067066E-06  7.343716967887E-06  1.098275735629E-05  1.384636419388E-05
  1.547484526243E-05  1.569551995494E-05  1.459681630269E-05  1.246961767544E-05
  9.728085001029E-06  6.823857112067E-06  4.167114447356E-06  2.065642856656E-06
  6.891954255390E-07  6.177528515145E-08  0.000000000000E+00  0.000000000000E+00
  0.000000000000E+00  0.000000000000E+00  0.000000000000E+00  0.000000000000E+00
  0.000000000000E+00  0.000000000000E+00  0.000000000000E+00  0.000000000000E+00
  0.000000000000E+00  0.000000000000E+00  0.000000000000E+00  0.000000000000E+00
  0.000000000000E+00  0.000000000000E+00  0.000000000000E+00  0.000000000000E+00
  0.000000000000E+00  0.000000000000E+00  0.000000000000E+00  0.000000000000E+00
  0.000000000000E+00  0.000000000000E+00  0.000000000000E+00  0.000000000000E+00
  0.000000000000E+00  0.000000000000E+00  0.000000000000E+00  0.000000000000E+00
  0.000000000000E+00  0.000000000000E+00  0.000000000000E+00  0.000000000000E+00
  0.000000000000E+00  0.000000000000E+00  0.000000000000E+00  0.000000000000E+00
  0.000000000000E+00  0.000000000000E+00  0.000000000000E+00  0.000000000000E+00
  0.000000000000E+00  0.000000000000E+00  0.000000000000E+00  0.000000000000E+00
  0.000000000000E+00  0.000000000000E+00  0.000000000000E+00  0.000000000000E+00
  0.000000000000E+00  0.000000000000E+00  0.000000000000E+00  0.000000000000E+00
  0.000000000000E+00  0.000000000000E+00  0.000000000000E+00  0.000000000000E+00
  0.000000000000E+00  0.000000000000E+00  0.000000000000E+00  0.000000000000E+00
  0.000000000000E+00  0.000000000000E+00  0.000000000000E+00  0.000000000000E+00
  0.000000000000E+00  0.000000000000E+00  0.000000000000E+00  0.000000000000E+00
  0.000000000000E+00  0.000000000000E+00  0.000000000000E+00  0.000000000000E+00
  0.000000000000E+00  0.000000000000E+00  0.000000000000E+00  0.000000000000E+00
  0.000000000000E+00  0.000000000000E+00
</data>
</radfunc>
</pseudocore-charge>
<semilocal-potentials set="scalar_relativistic">
<slps n="4" l="s" rc="1.41051599027" eref="-3.13968329740">
<radfunc>
<data npts="290">
 -3.020476960066E+00 -3.025034350332E+00 -3.039081779125E+00 -3.062306087943E+00
 -3.094539232485E+00 -3.136822799317E+00 -3.190549435083E+00 -3.251847565988E+00
 -3.320487386646E+00 -3.400155875255E+00 -3.489473607525E+00 -3.585980880877E+00
 -3.701823541306E+00 -3.821893476944E+00 -3.962344384496E+00 -4.101341012406E+00
 -4.259845412100E+00 -4.408576411856E+00 -4.574044893426E+00 -4.757855238628E+00
 -4.961696058107E+00 -5.140370776481E+00 -5.333914830525E+00 -5.543265886500E+00
 -5.769363868937E+00 -6.013138508587E+00 -6.275494601835E+00 -6.484976851803E+00
 -6.705739895899E+00 -6.938101310755E+00 -7.182348490216E+00 -7.438732680768E+00
 -7.707462664223E+00 -7.988698140264E+00 -8.282542875998E+00 -8.589037704451E+00
 -8.908153468594E+00 -9.239784021165E+00 -9.467733557552E+00 -9.701084324442E+00
 -9.939739329152E+00 -1.018358215289E+01 -1.043247624221E+01 -1.068626426419E+01
 -1.094476753295E+01 -1.120778551471E+01 -1.147509541778E+01 -1.174645187317E+01
 -1.202158671047E+01 -1.230020883234E+01 -1.258200419004E+01 -1.286663586052E+01
 -1.315374422457E+01 -1.344294724350E+01 -1.373384083067E+01 -1.402599931223E+01
 -1.431897597007E+01 -1.461230365863E+01 -1.490549548577E+01 -1.519804554701E+01
 -1.548942970156E+01 -1.577910637827E+01 -1.606651739939E+01 -1.635108881045E+01
 -1.663223170557E+01 -1.690934303854E+01 -1.718180641245E+01 -1.731609902847E+01
 -1.744899284259E+01 -1.758040738537E+01 -1.771026149094E+01 -1.783847331859E+01
 -1.796496037404E+01 -1.808963953061E+01 -1.821242705029E+01 -1.833323860491E+01
 -1.845198929759E+01 -1.856859368456E+01 -1.868296579758E+01 -1.879501916733E+01
 -1.890466684775E+01 -1.901182144183E+01 -1.911639512901E+01 -1.921829969455E+01
 -1.931744656119E+01 -1.941374682336E+01 -1.950711128444E+01 -1.959745049732E+01
 -1.968467480861E+01 -1.976869440699E+01 -1.984941937596E+01 -1.992675975140E+01
 -2.000062558428E+01 -2.007092700885E+01 -2.013757431674E+01 -2.020047803702E+01
 -2.025954902277E+01 -2.031469854418E+01 -2.036583838845E+01 -2.041288096667E+01
 -2.045573942772E+01 -2.049432777928E+01 -2.052856101599E+01 -2.055835525467E+01
 -2.058362787660E+01 -2.060429767669E+01 -2.062028501942E+01 -2.063151200146E+01
 -2.063790262072E+01 -2.063938295161E+01 -2.063588132657E+01 -2.062732852347E+01
 -2.061365795898E+01 -2.059480588776E+01 -2.057071160752E+01 -2.054131767013E+01
 -2.050657009881E+01 -2.046641861180E+01 -2.042081685292E+01 -2.036972262941E+01
 -2.031309815779E+01 -2.025091031841E+01 -2.018313091955E+01 -2.010973697203E+01
 -2.003071097551E+01 -1.994604121748E+01 -1.985572208647E+01 -1.975975440084E+01
 -1.965814575461E+01 -1.955091088224E+01 -1.943807204407E+01 -1.931965943449E+01
 -1.919571161529E+01 -1.906627597651E+01 -1.893140922790E+01 -1.879117792423E+01
 -1.864565902831E+01 -1.849494051610E+01 -1.833912202937E+01 -1.817831558168E+01
 -1.801264632517E+01 -1.784225338638E+01 -1.766729078108E+01 -1.748792841940E+01
 -1.730435321486E+01 -1.711677031208E+01 -1.692540445100E+01 -1.673050148679E+01
 -1.653233008715E+01 -1.633118363065E+01 -1.612738233120E+01 -1.592127561466E+01
 -1.571324477376E+01 -1.550370592599E+01 -1.529311329575E+01 -1.508196283663E+01