<?xml version="1.0" encoding="UTF-8" ?>
<psml version="1.1" energy_unit="hartree" length_unit="bohr"
 uuid="066d85c0-23d4-11e8-4d5c-66646fefc6d4"
 xmlns="http://esl.cecam.org/PSML/ns/1.1">
<provenance creator="ONCVPSP-3.3.0+psml-3.3.0-73 (scalar-relativistic)"
 date="2018-03-09">
<annotation action="semilocal-pseudopotential-generation"
 action-cont="projectors-generation" />
<input-file name="oncvpsp-input">
<![CDATA[# atsym z nc nv iexc psfile
Po 84 12 3 -001012 upf
# n l f
1 0 2.0
2 0 2.0
2 1 6.0
3 0 2.0
3 1 6.0
3 2 10.0
4 0 2.0
4 1 6.0
4 2 10.0
5 0 2.0
5 1 6.0
4 3 14.0
5 2 10.0
6 0 2.0
6 1 4.0
# lmax
2
# l rc ep ncon nbas qcut
0 2.4 0.0 4 8 3.6
1 2.2 0.0 4 8 4.6
2 1.9 0.0 4 8 8.0
# lloc lpopt rc5 dvloc0
4 5 1.9 0.0
# l nproj debl
0 2 2.6
1 2 3.2
2 2 2.5
# icmod fcfact rcfact
3 6.0 1.34
# epsh1 epsh2 depsh
-12.0 12.0 0.02
# rlmax drl
6.0 0.01
 0
]]>
</input-file>
</provenance>
<pseudo-atom-spec atomic-label="Po" atomic-number="84" z-pseudo="16"
 flavor="Hamann&apos;s oncvpsp" relativity="scalar" spin-dft="no"
 core-corrections="yes">
<annotation pseudo-energy="-83.1775467746" />
<exchange-correlation>
<annotation oncvpsp-xc-code="-1012" oncvpsp-xc-type="libxc-interface" />
<libxc-info number-of-functionals="2">
<functional name="Slater exchange (LDA)" type="exchange" id="1" />
<functional name="Perdew &amp; Wang (LDA)" type="correlation" id="12" />
</libxc-info>
</exchange-correlation>
<valence-configuration total-valence-charge="16">
<shell n="5" l="d" occupation="10" />
<shell n="6" l="s" occupation="2" />
<shell n="6" l="p" occupation="4" />
</valence-configuration>
</pseudo-atom-spec>
<grid npts="457">
<annotation type="sampled from oncvpsp log grid"
 recipe="r(i:1..N) = r1*exp(a*(i-1)) + r=0; resampled"
 recipe-cont="r1: scale; a: step" scale="0.595238095238E-05"
 step="0.119285708653E-01" delta="0.500000000000E-02" rmax="44.0605889801" />
<grid-data>
  0.000000000000E+00  5.031300802255E-03  1.004962851020E-02  1.507604528350E-02
  2.031422441398E-02  2.548179300022E-02  3.084027084741E-02  3.601345981203E-02
  4.106298189261E-02  4.626532407434E-02  5.150865635998E-02  5.666623015056E-02
  6.234023300928E-02  6.776914535508E-02  7.279726845657E-02  7.819845251068E-02
  8.400037672722E-02  8.916282012991E-02  9.464253379881E-02  1.004590163345E-01
  1.066329646705E-01  1.118442171143E-01  1.173101483258E-01  1.230432046939E-01
  1.290564408741E-01  1.353635495152E-01  1.419788924385E-01  1.471517127873E-01
  1.525129982658E-01  1.580696153610E-01  1.638286807322E-01  1.697975703246E-01
  1.759839288168E-01  1.823956794117E-01  1.890410339838E-01  1.959285035968E-01
  2.030669094043E-01  2.104653939473E-01  2.155468704188E-01  2.207510340582E-01
  2.260808470245E-01  2.315393429950E-01  2.371296288923E-01  2.428548866523E-01
  2.487183750356E-01  2.547234314824E-01  2.608734740122E-01  2.671720031687E-01
  2.736226040132E-01  2.802289481645E-01  2.869947958890E-01  2.939239982409E-01
  3.010204992545E-01  3.082883381885E-01  3.157316518257E-01  3.233546768274E-01
  3.311617521447E-01  3.391573214885E-01  3.473459358585E-01  3.557322561339E-01
  3.643210557260E-01  3.731172232954E-01  3.821257655346E-01  3.913518100177E-01
  4.008006081188E-01  4.104775380012E-01  4.203881076787E-01  4.254327649708E-01
  4.305379581505E-01  4.357044136483E-01  4.409328666121E-01  4.462240610114E-01
  4.515787497436E-01  4.569976947405E-01  4.624816670774E-01  4.680314470823E-01
  4.736478244473E-01  4.793315983407E-01  4.850835775207E-01  4.909045804510E-01
  4.967954354164E-01  5.027569806414E-01  5.087900644091E-01  5.148955451820E-01
  5.210742917242E-01  5.273271832249E-01  5.336551094236E-01  5.400589707367E-01
  5.465396783855E-01  5.530981545261E-01  5.597353323804E-01  5.664521563690E-01
  5.732495822454E-01  5.801285772324E-01  5.870901201592E-01  5.941352016011E-01
  6.012648240203E-01  6.084800019085E-01  6.157817619314E-01  6.231711430746E-01
  6.306491967915E-01  6.382169871530E-01  6.458755909988E-01  6.536260980908E-01
  6.614696112679E-01  6.694072466031E-01  6.774401335624E-01  6.855694151651E-01
  6.937962481471E-01  7.021218031249E-01  7.105472647624E-01  7.190738319395E-01
  7.277027179228E-01  7.364351505379E-01  7.452723723443E-01  7.542156408125E-01
  7.632662285022E-01  7.724254232442E-01  7.816945283232E-01  7.910748626630E-01
  8.005677610150E-01  8.101745741472E-01  8.198966690369E-01  8.297354290654E-01
  8.396922542142E-01  8.497685612647E-01  8.599657839999E-01  8.702853734079E-01
  8.807287978888E-01  8.912975434635E-01  9.019931139850E-01  9.128170313529E-01
  9.237708357291E-01  9.348560857578E-01  9.460743587869E-01  9.574272510924E-01
  9.689163781055E-01  9.805433746428E-01  9.923098951385E-01  1.004217613880E+00
  1.016268225247E+00  1.028463443950E+00  1.040805005277E+00  1.053294665340E+00
  1.065934201324E+00  1.078725411740E+00  1.091670116681E+00  1.104770158081E+00
  1.118027399978E+00  1.131443728778E+00  1.145021053523E+00  1.158761306166E+00
  1.172666441840E+00  1.186738439142E+00  1.200979300412E+00  1.215391052016E+00
  1.229975744641E+00  1.244735453576E+00  1.259672279019E+00  1.274788346367E+00
  1.290085806524E+00  1.305566836202E+00  1.321233638237E+00  1.337088441895E+00
  1.353133503198E+00  1.369371105237E+00  1.385803558499E+00  1.402433201201E+00
  1.419262399616E+00  1.436293548411E+00  1.453529070992E+00  1.470971419844E+00
  1.488623076882E+00  1.506486553805E+00  1.524564392450E+00  1.542859165160E+00
  1.561373475142E+00  1.580109956843E+00  1.599071276326E+00  1.618260131641E+00
  1.637679253221E+00  1.657331404260E+00  1.677219381111E+00  1.697346013684E+00
  1.717714165848E+00  1.738326735839E+00  1.759186656669E+00  1.780296896549E+00
  1.801660459307E+00  1.823280384819E+00  1.845159749437E+00  1.867301666430E+00
  1.889709286427E+00  1.912385797864E+00  1.935334427439E+00  1.958558440568E+00
  1.982061141855E+00  2.005845875557E+00  2.029916026064E+00  2.054275018377E+00
  2.078926318597E+00  2.103873434420E+00  2.129119915633E+00  2.154669354621E+00
  2.180525386876E+00  2.206691691519E+00  2.233171991817E+00  2.259970055719E+00
  2.287089696387E+00  2.314534772744E+00  2.342309190017E+00  2.370416900297E+00
  2.398861903101E+00  2.427648245938E+00  2.456780024889E+00  2.486261385188E+00
  2.516096521810E+00  2.546289680072E+00  2.576845156233E+00  2.607767298108E+00
  2.639060505685E+00  2.670729231753E+00  2.702777982534E+00  2.735211318325E+00
  2.768033854144E+00  2.801250260394E+00  2.834865263519E+00  2.868883646681E+00
  2.903310250441E+00  2.938149973447E+00  2.973407773128E+00  3.009088666406E+00
  3.045197730402E+00  3.081740103167E+00  3.118720984405E+00  3.156145636218E+00
  3.194019383853E+00  3.232347616459E+00  3.271135787856E+00  3.310389417311E+00
  3.350114090318E+00  3.390315459402E+00  3.430999244915E+00  3.472171235854E+00
  3.513837290684E+00  3.556003338173E+00  3.598675378231E+00  3.641859482769E+00
  3.685561796563E+00  3.729788538121E+00  3.774546000579E+00  3.819840552586E+00
  3.865678639217E+00  3.912066782887E+00  3.959011584282E+00  4.006519723293E+00
  4.054597959973E+00  4.103253135493E+00  4.152492173119E+00  4.202322079196E+00
  4.252749944146E+00  4.303782943476E+00  4.355428338798E+00  4.407693478863E+00
  4.460585800610E+00  4.514112830217E+00  4.568282184180E+00  4.623101570390E+00
  4.678578789234E+00  4.734721734705E+00  4.791538395522E+00  4.849036856268E+00
  4.907225298543E+00  4.966112002126E+00  5.025705346151E+00  5.086013810305E+00
  5.147045976029E+00  5.208810527741E+00  5.271316254074E+00  5.334572049123E+00
  5.398586913712E+00  5.463369956677E+00  5.528930396157E+00  5.595277560911E+00
  5.662420891642E+00  5.730369942342E+00  5.799134381650E+00  5.868723994229E+00
  5.939148682160E+00  6.010418466346E+00  6.082543487942E+00  6.155534009798E+00
  6.229400417915E+00  6.304153222930E+00  6.379803061605E+00  6.456360698345E+00
  6.533837026725E+00  6.612243071045E+00  6.691589987898E+00  6.771889067753E+00
  6.853151736566E+00  6.935389557405E+00  7.018614232093E+00  7.102837602878E+00
  7.188071654113E+00  7.274328513962E+00  7.361620456130E+00  7.449959901603E+00
  7.539359420423E+00  7.629831733468E+00  7.721389714269E+00  7.814046390841E+00
  7.907814947531E+00  8.002708726901E+00  8.098741231624E+00  8.195926126403E+00
  8.294277239920E+00  8.393808566799E+00  8.494534269601E+00  8.596468680836E+00
  8.699626305006E+00  8.804021820666E+00  8.909670082514E+00  9.016586123504E+00
  9.124785156986E+00  9.234282578870E+00  9.345093969817E+00  9.457235097454E+00
  9.570721918624E+00  9.685570581647E+00  9.801797428627E+00  9.919418997771E+00
  1.003845202574E+01  1.015891345005E+01  1.028082041145E+01  1.040419025639E+01
  1.052904053947E+01  1.065538902594E+01  1.078325369425E+01  1.091265273858E+01
  1.104360457145E+01  1.117612782630E+01  1.131024136022E+01  1.144596425654E+01
  1.158331582762E+01  1.172231561755E+01  1.186298340496E+01  1.200533920582E+01
  1.214940327629E+01  1.229519611561E+01  1.244273846900E+01  1.259205133062E+01
  1.274315594659E+01  1.289607381795E+01  1.305082670376E+01  1.320743662421E+01
  1.336592586370E+01  1.352631697407E+01  1.368863277775E+01  1.385289637109E+01
  1.401913112754E+01  1.418736070107E+01  1.435760902948E+01  1.452990033784E+01
  1.470425914189E+01  1.488071025159E+01  1.505927877461E+01  1.523999011991E+01
  1.542287000135E+01  1.560794444136E+01  1.579523977466E+01  1.598478265196E+01
  1.617660004378E+01  1.637071924430E+01  1.656716787524E+01  1.676597388974E+01
  1.696716557642E+01  1.717077156333E+01  1.737682082209E+01  1.758534267196E+01
  1.779636678402E+01  1.800992318543E+01  1.822604226365E+01  1.844475477082E+01
  1.866609182807E+01  1.889008493001E+01  1.911676594917E+01  1.934616714056E+01
  1.957832114624E+01  1.981326100000E+01  2.005102013200E+01  2.029163237358E+01
  2.053513196206E+01  2.078155354561E+01  2.103093218816E+01  2.128330337441E+01
  2.153870301491E+01  2.179716745109E+01  2.205873346050E+01  2.232343826202E+01
  2.259131952117E+01  2.286241535542E+01  2.313676433969E+01  2.341440551176E+01
  2.369537837791E+01  2.397972291844E+01  2.426747959346E+01  2.455868934858E+01
  2.485339362077E+01  2.515163434422E+01  2.545345395635E+01  2.575889540382E+01
  2.606800214867E+01  2.638081817445E+01  2.669738799255E+01  2.701775664846E+01
  2.734196972824E+01  2.767007336498E+01  2.800211424536E+01  2.833813961630E+01
  2.867819729170E+01  2.902233565920E+01  2.937060368711E+01  2.972305093135E+01
  3.007972754253E+01  3.044068427304E+01  3.080597248431E+01  3.117564415413E+01
  3.154975188398E+01  3.192834890658E+01  3.231148909346E+01  3.269922696258E+01
  3.309161768614E+01  3.348871709837E+01  3.389058170355E+01  3.429726868399E+01
  3.470883590820E+01  3.512534193910E+01  3.554684604237E+01  3.597340819488E+01
  3.640508909321E+01  3.684195016233E+01  3.728405356428E+01  3.773146220705E+01
  3.818423975354E+01  3.864245063058E+01  3.910616003815E+01  3.957543395860E+01
  4.005033916611E+01  4.053094323610E+01  4.101731455493E+01  4.150952232959E+01
  4.200763659755E+01  4.251172823672E+01  4.302186897556E+01  4.353813140327E+01
  4.406058898011E+01
</grid-data>
</grid>
<valence-charge total-charge="16" is-unscreening-charge="yes"
 rescaled-to-z-pseudo="no">
<radfunc>
<data npts="457">
  8.549459568991E-02  8.550099959114E-02  8.552178626291E-02  8.556194756856E-02
  8.563328345574E-02  8.574572186380E-02  8.592381006490E-02  8.617558583826E-02
  8.651964855135E-02  8.700232453966E-02  8.765140941447E-02  8.848302148804E-02
  8.966315455654E-02  9.109995978428E-02  9.274336839728E-02  9.489366675966E-02
  9.771048785291E-02  1.007165727625E-01  1.044856817260E-01  1.092128909894E-01
  1.151425847586E-01  1.209551771477E-01  1.279224713699E-01  1.362723053682E-01
  1.462762953323E-01  1.582577953376E-01  1.726011482235E-01  1.851799270712E-01
  1.995648101184E-01  2.160083717604E-01  2.347966028247E-01  2.562528579886E-01
  2.807421531001E-01  3.086758130474E-01  3.405164607584E-01  3.767833246167E-01
  4.180578243983E-01  4.649893739860E-01  4.997738613844E-01  5.376262331950E-01
  5.787968358405E-01  6.235533059754E-01  6.721812748721E-01  7.249850170082E-01
  7.822880237003E-01  8.444334796725E-01  9.117846172057E-01  9.847249189970E-01
  1.063658137067E+00  1.149008091002E+00  1.241218204556E+00  1.340750735167E+00
  1.448085646389E+00  1.563719068616E+00  1.688161288943E+00  1.821934206674E+00
  1.965568187049E+00  2.119598242357E+00  2.284559467121E+00  2.460981652590E+00
  2.649383005863E+00  2.850262900916E+00  3.064093593035E+00  3.291310835273E+00
  3.532303345961E+00  3.787401090734E+00  4.056862361526E+00  4.197036986977E+00
  4.340859659176E+00  4.488336029217E+00  4.639464416346E+00  4.794235272697E+00
  4.952630633910E+00  5.114623557032E+00  5.280177547341E+00  5.449245975942E+00
  5.621771490289E+00  5.797685419997E+00  5.976907180654E+00  6.159343678593E+00
  6.344888719908E+00  6.533422427320E+00  6.724810668827E+00  6.918904502382E+00
  7.115539641220E+00  7.314535944743E+00  7.515696940274E+00  7.718809381248E+00
  7.923642847794E+00  8.129949395943E+00  8.337463261982E+00  8.545900628770E+00
  8.754959461026E+00  8.964319416865E+00  9.173641842942E+00  9.382569860748E+00
  9.590728551612E+00  9.797725247956E+00  1.000314993830E+01  1.020657579329E+01
  1.040755981991E+01  1.060564365038E+01  1.080035447233E+01  1.099120610554E+01
  1.117770023065E+01  1.135932777378E+01  1.153557045035E+01  1.170590247042E+01
  1.186979240631E+01  1.202670522229E+01  1.217610446425E+01  1.231745460601E+01
  1.245022354670E+01  1.257388525235E+01  1.268792253205E+01  1.279182993773E+01
  1.288511677369E+01  1.296731020032E+01  1.303795841372E+01  1.309663388078E+01
  1.314293660707E+01  1.317649741241E+01  1.319698118701E+01  1.320409009884E+01
  1.319756672133E+01  1.317719704853E+01  1.314281336363E+01  1.309429692583E+01
  1.303158043958E+01  1.295465027021E+01  1.286354836989E+01  1.275837387897E+01
  1.263928436846E+01  1.250649669170E+01  1.236028741547E+01  1.220099280378E+01
  1.202900833141E+01  1.184478770838E+01  1.164884140149E+01  1.144173464460E+01
  1.122408493489E+01  1.099655901935E+01  1.075986938194E+01  1.051477024929E+01
  1.026205313997E+01  1.000254198953E+01  9.737087890906E+00  9.466563496571E+00
  9.191857135676E+00  8.913866705246E+00  8.633493400115E+00  8.351635350750E+00
  8.069181241792E+00  7.787003986620E+00  7.505954534589E+00  7.226855887575E+00
  6.950497401163E+00  6.677629443036E+00  6.408958477048E+00  6.145142635944E+00
  5.886787838970E+00  5.634444502645E+00  5.388604884045E+00  5.149701086078E+00
  4.918103743811E+00  4.694121399989E+00  4.478000566854E+00  4.269926460386E+00
  4.070024382472E+00  3.878361716495E+00  3.694950492616E+00  3.519750470893E+00
  3.352672683404E+00  3.193583370974E+00  3.042308245867E+00  2.898637009128E+00
  2.762328049897E+00  2.633113254085E+00  2.510702851066E+00  2.394790229373E+00
  2.285056655648E+00  2.181175834989E+00  2.082818255340E+00  1.989655263326E+00
  1.901362824016E+00  1.817624922269E+00  1.738136568677E+00  1.662606378716E+00
  1.590758699583E+00  1.522335265631E+00  1.457096370332E+00  1.394821550654E+00
  1.335309788506E+00  1.278379243746E+00  1.223866162081E+00  1.171622032893E+00
  1.121510196914E+00  1.073405837098E+00  1.027195716155E+00  9.827778040970E-01
  9.400607575485E-01  8.989632663068E-01  8.594132868305E-01  8.213471861392E-01
  7.847088228177E-01  7.494485941657E-01  7.155223490195E-01  6.828897861675E-01
  6.515126239607E-01  6.213536757561E-01  5.923763730191E-01  5.645441467097E-01
  5.378200396453E-01  5.121664449333E-01  4.875451824718E-01  4.639184682508E-01
  4.412502727107E-01  4.195064214375E-01  3.986542182556E-01  3.786624279002E-01
  3.595011508068E-01  3.411417176248E-01  3.235565921092E-01  3.067192821282E-01
  2.906042584778E-01  2.751868811621E-01  2.604433327679E-01  2.463505585445E-01
  2.328862127820E-01  2.200286110742E-01  2.077566880487E-01  1.960499601467E-01
  1.848884930401E-01  1.742528732834E-01  1.641241838046E-01  1.544839828599E-01
  1.453142860858E-01  1.365975513046E-01  1.283166657556E-01  1.204549354446E-01
  1.129960763241E-01  1.059242070372E-01  9.922384298034E-02  9.287989146038E-02
  8.687764772270E-02  8.120279170317E-02  7.584138529550E-02  7.077987000574E-02
  6.600506485748E-02  6.150416443194E-02  5.726473694236E-02  5.327472225648E-02
  4.952242979425E-02  4.599653623998E-02  4.268608301950E-02  3.958047350296E-02
  3.666946990338E-02  3.394318984903E-02  3.139210261537E-02  2.900702500879E-02
  2.677911689992E-02  2.469987640962E-02  2.276113475476E-02  2.095505076471E-02
  1.927410508251E-02  1.771109406718E-02  1.625912341584E-02  1.491160152562E-02
  1.366223261698E-02  1.250500964062E-02  1.143420699096E-02  1.044437304935E-02
  9.530322580462E-03  8.687129005014E-03  7.910116571844E-03  7.194852451962E-03
  6.537138776608E-03  5.933004640797E-03  5.378698093082E-03  4.870678131548E-03
  4.405606725197E-03  3.980340879033E-03  3.591924760274E-03  3.237581902181E-03
  2.914707501057E-03  2.620860821039E-03  2.353757720307E-03  2.111263311392E-03
  1.891384767296E-03  1.692264284130E-03  1.512172210068E-03  1.349500349386E-03
  1.202755449445E-03  1.070552877509E-03  9.516104933597E-04  8.447427227440E-04
  7.488548357870E-04  6.629374336219E-04  5.860611456178E-04  5.173715387516E-04
  4.560842398569E-04  4.014802707034E-04  3.529015951096E-04  3.097468765812E-04
  2.714674442921E-04  2.375634645915E-04  2.075803146307E-04  1.811051541531E-04
  1.577636909953E-04  1.372171353894E-04  1.191593377530E-04  1.033141042982E-04
  8.943268447929E-05  7.729142404181E-05  6.668957722231E-05  5.744727148251E-05
  4.940361804156E-05  4.241496139298E-05  3.635326095777E-05  3.110459802889E-05
  2.656780120350E-05  2.265318357348E-05  1.928138505167E-05  1.638231334501E-05
  1.389417724585E-05  1.176260609479E-05  9.939849469505E-06  8.384051371728E-06
  7.058593415349E-06  5.931501760200E-06  4.974912785164E-06  4.164592748941E-06
  3.479506944224E-06  2.901434109213E-06  2.414622117307E-06  2.005481219573E-06
  1.662311363645E-06  1.375060355629E-06  1.135109867179E-06  9.350865171098E-07
  7.686954748976E-07  6.305742416181E-07  5.161644616077E-07  4.215998052645E-07
  3.436081395985E-07  2.794263683765E-07  2.267264780280E-07  1.835514690062E-07
  1.482599852876E-07  1.194785774231E-07  9.606064740514E-08  7.705122699160E-08
  6.165683548402E-08  4.921974877252E-08  3.919608923131E-08  3.113721628561E-08
  2.467396068431E-08  1.950330221127E-08  1.537714125257E-08  1.209285979145E-08
  9.485407499153E-09  7.420684074871E-09  5.790020290621E-09  4.505587718082E-09
  3.496591233135E-09  2.706119461350E-09  2.088546670384E-09  1.607395533804E-09
  1.233583960756E-09  9.439910586109E-10  7.202874993731E-10  5.479843014033E-10
  4.156615012189E-10  3.143445417388E-10  2.370015912063E-10  1.781395623643E-10
  1.334804402131E-10  9.970275086410E-11  7.423570297457E-11  5.509578502157E-11
  4.075747400271E-11  3.005126271633E-11  2.208349413732E-11  1.617354599173E-11
  1.180477357756E-11  8.586325812178E-12  6.223525246498E-12  4.494970052475E-12
  3.234893853792E-12  2.319623736181E-12  1.657221209011E-12  1.179586411008E-12
  8.364616698643E-13  5.908942372844E-13  4.158158722734E-13  2.914740476118E-13
  2.035100735032E-13  1.415267506045E-13  9.802501627444E-14  6.761763427875E-14
  4.645006428026E-14  3.177564221434E-14  2.164522625066E-14  1.468140210623E-14
  9.914894828332E-15  6.666550179094E-15  4.462555862080E-15  2.973804271996E-15
  1.972712262617E-15  1.302608518956E-15  8.561281162731E-16  5.600333086753E-16
  3.645981727873E-16  2.362194369414E-16  1.522972151295E-16  9.770523984564E-17
  6.236879753571E-17  3.961085871840E-17  2.502833422146E-17  1.573234805083E-17
  9.837207738773E-18  6.118420090517E-18  3.785018585105E-18  2.328787156308E-18
  1.424938339985E-18  8.670375843314E-19  5.245973244684E-19  3.155955375610E-19
  1.887653191922E-19  1.122456774022E-19  6.635017950380E-20  3.898594136417E-20
  2.276853014853E-20  1.321568158239E-20  7.623189646657E-21  0.000000000000E+00
  0.000000000000E+00  0.000000000000E+00  0.000000000000E+00  0.000000000000E+00
  0.000000000000E+00  0.000000000000E+00  0.000000000000E+00  0.000000000000E+00
  0.000000000000E+00  0.000000000000E+00  0.000000000000E+00  0.000000000000E+00
  0.000000000000E+00  0.000000000000E+00  0.000000000000E+00  0.000000000000E+00
  0.000000000000E+00  0.000000000000E+00  0.000000000000E+00  0.000000000000E+00
  0.000000000000E+00
</data>
</radfunc>
</valence-charge>
<pseudocore-charge matching-radius="0.980543374643"
 number-of-continuous-derivatives="4">
<annotation model-charge-form="Teter function with specified parameters" />
<radfunc>
<data npts="290">
  7.313745861440E+01  7.313407046635E+01  7.312394182131E+01  7.310704265507E+01
  7.308224347659E+01  7.305059666413E+01  7.301025668984E+01  7.296405492500E+01
  7.291209447199E+01  7.285148493242E+01  7.278314763811E+01  7.270884564201E+01
  7.261901394219E+01  7.252515479809E+01  7.243135185169E+01  7.232325431664E+01
  7.219870888179E+01  7.208058558858E+01  7.194771385893E+01  7.179828315608E+01
  7.163026899025E+01  7.148096644230E+01  7.131705082531E+01  7.113712889426E+01
  7.093968234005E+01  7.072305821495E+01  7.048545899037E+01  7.029232632128E+01
  7.008541620235E+01  6.986378971726E+01  6.962645071615E+01  6.937234339021E+01
  6.910034992520E+01  6.880928827455E+01  6.849791010009E+01  6.816489893657E+01
  6.780886864551E+01  6.742836223400E+01  6.716034155112E+01  6.688029406175E+01
  6.658773498399E+01  6.628216550810E+01  6.596307298259E+01  6.562993118263E+01
  6.528220067023E+01  6.491932925606E+01  6.454075257394E+01  6.414589477935E+01
  6.373416938442E+01  6.330498024242E+01  6.285772269567E+01  6.239178490142E+01
  6.190654935113E+01  6.140139459920E+01  6.087569721771E+01  6.032883399464E+01
  5.976018439296E+01  5.916913328884E+01  5.855507400698E+01  5.791741167123E+01
  5.725556688822E+01  5.656897978137E+01  5.585711439151E+01  5.511946345904E+01
  5.435555360110E+01  5.356495089444E+01  5.274726687220E+01  5.232816197147E+01
  5.190216493911E+01  5.146924292684E+01  5.102936720526E+01  5.058251339991E+01
  5.012866173349E+01  4.966779727412E+01  4.919991018944E+01  4.872499600636E+01
  4.824305587613E+01  4.775409684453E+01  4.725813212678E+01  4.675518138680E+01
  4.624527102041E+01  4.572843444197E+01  4.520471237395E+01  4.467415313888E+01
  4.413681295295E+01  4.359275622066E+01  4.304205582972E+01  4.248479344536E+01
  4.192105980321E+01  4.135095499975E+01  4.077458877926E+01  4.019208081634E+01
  3.960356099257E+01  3.900916966627E+01  3.840905793391E+01  3.780338788179E+01
  3.719233282653E+01  3.657607754275E+01  3.595481847630E+01  3.532876394139E+01
  3.469813429964E+01  3.406316211939E+01  3.342409231313E+01  3.278118225118E+01
  3.213470184935E+01  3.148493362864E+01  3.083217274466E+01  3.017672698451E+01
  2.951891672890E+01  2.885907487716E+01  2.819754673283E+01  2.753468984746E+01
  2.687087382033E+01  2.620648005173E+01  2.554190144760E+01  2.487754207327E+01
  2.421381675409E+01  2.355115062113E+01  2.288997859974E+01  2.223074483937E+01
  2.157390208300E+01  2.091991097474E+01  2.026923930436E+01  1.962236118788E+01
  1.897975618349E+01  1.834190834248E+01  1.770930519513E+01  1.708243667205E+01
  1.646179396152E+01  1.584786830438E+01  1.524114972789E+01  1.464212572096E+01
  1.405127985346E+01  1.346909034297E+01  1.289602857286E+01  1.233255756640E+01
  1.177913042197E+01  1.123618871531E+01  1.070416087548E+01  1.018346054155E+01
  9.674484908293E+00  9.177613069148E+00  8.693204366048E+00  8.221596755905E+00
  7.763105204379E+00  7.318020118083E+00  6.886605826899E+00  6.469099128564E+00
  6.065707908071E+00  5.676609844753E+00  5.301951220086E+00  4.941845839411E+00
  4.596374080683E+00  4.265582083244E+00  3.949481089271E+00  3.648046950096E+00
  3.361219808966E+00  3.088903970949E+00  2.830967969744E+00  2.587244839899E+00
  2.357532601594E+00  2.141594963528E+00  1.939162247672E+00  1.749932537720E+00
  1.573573050865E+00  1.409721730297E+00  1.257989053313E+00  1.117960047411E+00
  9.891965040572E-01  8.712393771054E-01  7.636113501281E-01  6.658195541762E-01
  5.773584148551E-01  4.977126050605E-01  4.263600773523E-01  3.627751478056E-01
  3.064316013102E-01  2.568057867685E-01  2.133796695038E-01  1.756438075027E-01
  1.431002179200E-01  1.152651006141E-01  9.167138639195E-02  7.187107915448E-02
  5.543736325197E-02  4.196645009571E-02  3.107914140636E-02  2.242209038697E-02
  1.566874654230E-02  1.051997476304E-02  6.704344573727E-03  3.978091009441E-03
  2.124754324706E-03  9.545115211998E-04  3.032183697090E-04  3.118604774318E-05
  2.172156523754E-05  1.794656538149E-04  4.285656025990E-04  7.107234984353E-04
  9.831623499602E-04  1.216553544943E-03  1.392948938370E-03  1.503759557724E-03
  1.547820442268E-03  1.529577546227E-03  1.457428015637E-03  1.342239622326E-03
  1.196068874205E-03  1.031090524290E-03  8.587441084057E-04  6.890960132464E-04
  5.304086851500E-04  3.889022094787E-04  2.686878828057E-04  1.718488014539E-04
  9.863909740008E-05  4.777141136299E-05  1.676158559940E-05  2.300397310209E-06
  6.243740057289E-07  7.861195368707E-06  2.032968141664E-05  3.477962141275E-05
  4.856239146211E-05  5.972909112529E-05  6.705844325975E-05  7.002160572455E-05
  6.869503856504E-05  6.363541979459E-05  5.573215439046E-05  4.605321977500E-05
  3.569898670940E-05  2.567640036162E-05  1.680274842229E-05  9.644501301202E-06
  4.492750024647E-06  1.372970602723E-06  8.356735969465E-08  2.551924960787E-07
  1.421416726860E-06  3.091035996742E-06  4.813117742343E-06  6.227669940558E-06
  7.097303029541E-06  7.318116197726E-06  6.910904356107E-06  5.996286637307E-06
  4.759192140315E-06  3.409090258090E-06  2.142333257223E-06  1.112038558738E-06
  4.092604277238E-07  5.707442114440E-08  0.000000000000E+00  0.000000000000E+00
  0.000000000000E+00  0.000000000000E+00  0.000000000000E+00  0.000000000000E+00
  0.000000000000E+00  0.000000000000E+00  0.000000000000E+00  0.000000000000E+00
  0.000000000000E+00  0.000000000000E+00  0.000000000000E+00  0.000000000000E+00
  0.000000000000E+00  0.000000000000E+00  0.000000000000E+00  0.000000000000E+00
  0.000000000000E+00  0.000000000000E+00  0.000000000000E+00  0.000000000000E+00
  0.000000000000E+00  0.000000000000E+00  0.000000000000E+00  0.000000000000E+00
  0.000000000000E+00  0.000000000000E+00  0.000000000000E+00  0.000000000000E+00
  0.000000000000E+00  0.000000000000E+00  0.000000000000E+00  0.000000000000E+00
  0.000000000000E+00  0.000000000000E+00
</data>
</radfunc>
</pseudocore-charge>
<semilocal-potentials set="scalar_relativistic">
<slps n="6" l="s" rc="2.42764824594" eref="-0.631950609397">
<radfunc>
<data npts="290">
 -6.755956564886E+00 -6.756045623489E+00 -6.756312053988E+00 -6.756757270655E+00
 -6.757412181549E+00 -6.758250629815E+00 -6.759323780604E+00 -6.760558902536E+00
 -6.761955655565E+00 -6.763595164271E+00 -6.765456934402E+00 -6.767497073710E+00
 -6.769985636127E+00 -6.772611440611E+00 -6.775261802384E+00 -6.778348339732E+00
 -6.781947225845E+00 -6.785402619814E+00 -6.789338194298E+00 -6.793825620826E+00
 -6.798948323531E+00 -6.803568731673E+00 -6.808714880520E+00 -6.814451625378E+00
 -6.820852547283E+00 -6.828001190643E+00 -6.835992469176E+00 -6.842603263801E+00
 -6.849799282747E+00 -6.857636522992E+00 -6.866176622551E+00 -6.875487409937E+00
 -6.885643494174E+00 -6.896726894383E+00 -6.908827706620E+00 -6.922044803927E+00
 -6.936486563383E+00 -6.952271611248E+00 -6.963604785716E+00 -6.975633624493E+00
 -6.988401819228E+00 -7.001955566709E+00 -7.016343653616E+00 -7.031617533445E+00
 -7.047831393346E+00 -7.065042208293E+00 -7.083309779701E+00 -7.102696755252E+00
 -7.123268626294E+00 -7.145093698838E+00 -7.168243033762E+00 -7.192790351438E+00
 -7.218811895611E+00 -7.246386250995E+00 -7.275594108681E+00 -7.306517973162E+00
 -7.339241804521E+00 -7.373850589147E+00 -7.410429832271E+00 -7.449064965633E+00
 -7.489840663802E+00 -7.532840062968E+00 -7.578143876626E+00 -7.625829403290E+00
 -7.675969422439E+00 -7.728630976152E+00 -7.783874035521E+00 -7.812480083320E+00
 -7.841750052837E+00 -7.871688788788E+00 -7.902300402797E+00 -7.933588219061E+00
 -7.965554718575E+00 -7.998201482040E+00 -8.031529131548E+00 -8.065537271187E+00
 -8.100224426710E+00 -8.135587984413E+00 -8.171624129412E+00 -8.208327783512E+00
 -8.245692542859E+00 -8.283710615619E+00 -8.322372759915E+00 -8.361668222285E+00
 -8.401584676936E+00 -8.442108166083E+00 -8.483223041688E+00 -8.524911908921E+00
 -8.567155571676E+00 -8.609932980516E+00 -8.653221183394E+00 -8.696995279552E+00
 -8.741228376977E+00 -8.785891553837E+00 -8.830953824296E+00 -8.876382109147E+00
 -8.922141211691E+00 -8.968193799289E+00 -9.014500391048E+00 -9.061019352059E+00
 -9.107706894653E+00 -9.154517087098E+00 -9.201401870179E+00 -9.248311082083E+00
 -9.295192492020E+00 -9.341991842966E+00 -9.388652903937E+00 -9.435117532159E+00
 -9.481325745484E+00 -9.527215805388E+00 -9.572724310849E+00 -9.617786303376E+00
 -9.662335383436E+00 -9.706303838470E+00 -9.749622782676E+00 -9.792222308665E+00
 -9.834031651072E+00 -9.874979362140E+00 -9.914993499245E+00 -9.954001824269E+00
 -9.991932014664E+00 -1.002871188600E+01 -1.006426962565E+01 -1.009853403735E+01
 -1.013143479602E+01 -1.016290271242E+01 -1.019287000702E+01 -1.022127059220E+01
 -1.024804036207E+01 -1.027311748893E+01 -1.029644272520E+01 -1.031795970966E+01
 -1.033761527664E+01 -1.035535976666E+01 -1.037114733676E+01 -1.038493626882E+01
 -1.039668927362E+01 -1.040637378873E+01 -1.041396226739E+01 -1.041943245614E+01
 -1.042276765798E+01 -1.042395697819E+01 -1.042299554920E+01 -1.041988473119E+01
 -1.041463228419E+01 -1.040725250792E+01 -1.039776634471E+01 -1.038620144108E+01
 -1.037259216317E+01 -1.035697956100E+01 -1.033941127653E+01 -1.031994139049E+01
 -1.029863020265E+01 -1.027554394079E+01 -1.025075439354E+01 -1.022433846258E+01