<?xml version="1.0" encoding="UTF-8" ?>
<psml version="1.1" energy_unit="hartree" length_unit="bohr"
 uuid="c516af70-23d3-11e8-71e8-244df47b30d9"
 xmlns="http://esl.cecam.org/PSML/ns/1.1">
<provenance creator="ONCVPSP-3.3.0+psml-3.3.0-73 (scalar-relativistic)"
 date="2018-03-09">
<annotation action="semilocal-pseudopotential-generation"
 action-cont="projectors-generation" />
<input-file name="oncvpsp-input">
<![CDATA[# atsym z nc nv iexc psfile
Pt 78 10 4 -001012 upf
# n l f
1 0 2.0
2 0 2.0
2 1 6.0
3 0 2.0
3 1 6.0
3 2 10.0
4 0 2.0
4 1 6.0
4 2 10.0
4 3 14.0
5 0 2.0
5 1 6.0
5 2 9.0
6 0 1.0
# lmax
3
# l rc ep ncon nbas qcut
0 1.45 0.0 4 7 8.8
1 1.45 0.0 4 7 9.0
2 1.45 0.0 4 7 8.7
3 1.9 0.1 4 8 6.8
# lloc lpopt rc5 dvloc0
4 3 1.3 0.0
# l nproj debl
0 2 1.0
1 2 2.5
2 2 1.0
3 2 3.0
# icmod fcfact rcfact
3 5.0 1.37
# epsh1 epsh2 depsh
-14.0 12.0 0.02
# rlmax drl
5.0 0.01
 0
]]>
</input-file>
</provenance>
<pseudo-atom-spec atomic-label="Pt" atomic-number="78" z-pseudo="18"
 flavor="Hamann&apos;s oncvpsp" relativity="scalar" spin-dft="no"
 core-corrections="yes">
<annotation pseudo-energy="-121.191282675" />
<exchange-correlation>
<annotation oncvpsp-xc-code="-1012" oncvpsp-xc-type="libxc-interface" />
<libxc-info number-of-functionals="2">
<functional name="Slater exchange (LDA)" type="exchange" id="1" />
<functional name="Perdew &amp; Wang (LDA)" type="correlation" id="12" />
</libxc-info>
</exchange-correlation>
<valence-configuration total-valence-charge="18">
<shell n="5" l="s" occupation="2" />
<shell n="5" l="p" occupation="6" />
<shell n="5" l="d" occupation="9" />
<shell n="6" l="s" occupation="1" />
</valence-configuration>
</pseudo-atom-spec>
<grid npts="457">
<annotation type="sampled from oncvpsp log grid"
 recipe="r(i:1..N) = r1*exp(a*(i-1)) + r=0; resampled"
 recipe-cont="r1: scale; a: step" scale="0.641025641026E-05"
 step="0.119285708653E-01" delta="0.500000000000E-02" rmax="44.1724925976" />
<grid-data>
  0.000000000000E+00  5.044079132587E-03  1.007515222223E-02  1.511433492157E-02
  2.012432589434E-02  2.524358775694E-02  3.055197424992E-02  3.567680395129E-02
  4.067912281364E-02  4.583283320620E-02  5.102715052485E-02  5.613651102371E-02
  6.175747298255E-02  6.713563554845E-02  7.298215653624E-02  7.839705833785E-02
  8.421371808842E-02  8.938927289305E-02  9.488290375636E-02  1.007141588008E-01
  1.069037875253E-01  1.121282753347E-01  1.176080887363E-01  1.233557057302E-01
  1.293842141275E-01  1.357073413533E-01  1.423394857043E-01  1.475254438101E-01
  1.529003457030E-01  1.584710753094E-01  1.642447673631E-01  1.702288165427E-01
  1.764308869423E-01  1.828589218880E-01  1.895211541104E-01  1.964261162895E-01
  2.035826519825E-01  2.109999269504E-01  2.160943091867E-01  2.213116901877E-01
  2.266550396356E-01  2.321273989125E-01  2.377318828319E-01  2.434716814109E-01
  2.493500616869E-01  2.553703695763E-01  2.615360317794E-01  2.678505577306E-01
  2.743175415965E-01  2.809406643208E-01  2.877236957202E-01  2.946704966296E-01
  3.017850211002E-01  3.090713186497E-01  3.165335365672E-01  3.241759222740E-01
  3.320028257414E-01  3.400187019661E-01  3.482281135064E-01  3.566357330789E-01
  3.652463462184E-01  3.740648540015E-01  3.830962758365E-01  3.923457523203E-01
  4.018185481643E-01  4.115200551912E-01  4.214557954037E-01  4.265132649485E-01
  4.316314241279E-01  4.368110012175E-01  4.420527332321E-01  4.473573660308E-01
  4.527256544232E-01  4.581583622763E-01  4.636562626236E-01  4.692201377751E-01
  4.748507794284E-01  4.805489887815E-01  4.863155766469E-01  4.921513635667E-01
  4.980571799295E-01  5.040338660886E-01  5.100822724817E-01  5.162032597515E-01
  5.223976988685E-01  5.286664712549E-01  5.350104689100E-01  5.414305945369E-01
  5.479277616713E-01  5.545028948114E-01  5.611569295491E-01  5.678908127037E-01
  5.747055024562E-01  5.816019684856E-01  5.885811921075E-01  5.956441664128E-01
  6.027918964097E-01  6.100253991666E-01  6.173457039566E-01  6.247538524041E-01
  6.322508986330E-01  6.398379094166E-01  6.475159643295E-01  6.552861559015E-01
  6.631495897723E-01  6.711073848496E-01  6.791606734678E-01  6.873106015494E-01
  6.955583287680E-01  7.039050287132E-01  7.123518890578E-01  7.209001117265E-01
  7.295509130672E-01  7.383055240240E-01  7.471651903123E-01  7.561311725960E-01
  7.652047466672E-01  7.743872036272E-01  7.836798500707E-01  7.930840082715E-01
  8.026010163708E-01  8.122322285673E-01  8.219790153101E-01  8.318427634938E-01
  8.418248766557E-01  8.519267751756E-01  8.621498964777E-01  8.724956952354E-01
  8.829656435782E-01  8.935612313012E-01  9.042839660768E-01  9.151353736697E-01
  9.261169981538E-01  9.372304021316E-01  9.484771669572E-01  9.598588929607E-01
  9.713771996762E-01  9.830337260723E-01  9.948301307852E-01  1.006768092355E+00
  1.018849309463E+00  1.031075501176E+00  1.043448407191E+00  1.055969788077E+00
  1.068641425534E+00  1.081465122640E+00  1.094442704112E+00  1.107576016561E+00
  1.120866928760E+00  1.134317331905E+00  1.147929139888E+00  1.161704289567E+00
  1.175644741041E+00  1.189752477934E+00  1.204029507669E+00  1.218477861761E+00
  1.233099596102E+00  1.247896791255E+00  1.262871552750E+00  1.278026011383E+00
  1.293362323520E+00  1.308882671402E+00  1.324589263459E+00  1.340484334621E+00
  1.356570146636E+00  1.372848988396E+00  1.389323176256E+00  1.405995054372E+00
  1.422866995024E+00  1.439941398964E+00  1.457220695752E+00  1.474707344101E+00
  1.492403832230E+00  1.510312678217E+00  1.528436430355E+00  1.546777667520E+00
  1.565338999530E+00  1.584123067524E+00  1.603132544335E+00  1.622370134867E+00
  1.641838576485E+00  1.661540639403E+00  1.681479127076E+00  1.701656876601E+00
  1.722076759120E+00  1.742741680229E+00  1.763654580392E+00  1.784818435357E+00
  1.806236256581E+00  1.827911091660E+00  1.849846024760E+00  1.872044177057E+00
  1.894508707182E+00  1.917242811668E+00  1.940249725408E+00  1.963532722113E+00
  1.987095114778E+00  2.010940256155E+00  2.035071539229E+00  2.059492397700E+00
  2.084206306473E+00  2.109216782150E+00  2.134527383536E+00  2.160141712138E+00
  2.186063412684E+00  2.212296173636E+00  2.238843727720E+00  2.265709852453E+00
  2.292898370682E+00  2.320413151130E+00  2.348258108944E+00  2.376437206251E+00
  2.404954452726E+00  2.433813906159E+00  2.463019673033E+00  2.492575909109E+00
  2.522486820018E+00  2.552756661859E+00  2.583389741801E+00  2.614390418703E+00
  2.645763103727E+00  2.677512260972E+00  2.709642408103E+00  2.742158117001E+00
  2.775064014405E+00  2.808364782577E+00  2.842065159968E+00  2.876169941888E+00
  2.910683981191E+00  2.945612188965E+00  2.980959535233E+00  3.016731049655E+00
  3.052931822251E+00  3.089567004118E+00  3.126641808168E+00  3.164161509866E+00
  3.202131447984E+00  3.240557025360E+00  3.279443709664E+00  3.318797034180E+00
  3.358622598590E+00  3.398926069773E+00  3.439713182611E+00  3.480989740802E+00
  3.522761617692E+00  3.565034757104E+00  3.607815174189E+00  3.651108956279E+00
  3.694922263755E+00  3.739261330920E+00  3.784132466891E+00  3.829542056494E+00
  3.875496561171E+00  3.922002519905E+00  3.969066550144E+00  4.016695348746E+00
  4.064895692931E+00  4.113674441246E+00  4.163038534541E+00  4.212994996956E+00
  4.263550936919E+00  4.314713548162E+00  4.366490110740E+00  4.418887992069E+00
  4.471914647974E+00  4.525577623750E+00  4.579884555234E+00  4.634843169897E+00
  4.690461287936E+00  4.746746823391E+00  4.803707785272E+00  4.861352278695E+00
  4.919688506040E+00  4.978724768112E+00  5.038469465329E+00  5.098931098913E+00
  5.160118272100E+00  5.222039691366E+00  5.284704167662E+00  5.348120617674E+00
  5.412298065086E+00  5.477245641867E+00  5.542972589569E+00  5.609488260644E+00
  5.676802119772E+00  5.744923745209E+00  5.813862830152E+00  5.883629184114E+00
  5.954232734323E+00  6.025683527135E+00  6.097991729460E+00  6.171167630214E+00
  6.245221641777E+00  6.320164301478E+00  6.396006273096E+00  6.472758348373E+00
  6.550431448553E+00  6.629036625936E+00  6.708585065447E+00  6.789088086232E+00
  6.870557143267E+00  6.953003828986E+00  7.036439874934E+00  7.120877153433E+00
  7.206327679275E+00  7.292803611426E+00  7.380317254763E+00  7.468881061820E+00
  7.558507634562E+00  7.649209726177E+00  7.741000242891E+00  7.833892245806E+00
  7.927898952755E+00  8.023033740188E+00  8.119310145071E+00  8.216741866811E+00
  8.315342769213E+00  8.415126882444E+00  8.516108405033E+00  8.618301705893E+00
  8.721721326364E+00  8.826381982281E+00  8.932298566068E+00  9.039486148861E+00
  9.147959982647E+00  9.257735502439E+00  9.368828328468E+00  9.481254268410E+00
  9.595029319631E+00  9.710169671466E+00  9.826691707524E+00  9.944612008014E+00
  1.006394735211E+01  1.018471472034E+01  1.030693129698E+01  1.043061447254E+01
  1.055578184621E+01  1.068245122837E+01  1.081064064311E+01  1.094036833083E+01
  1.107165275080E+01  1.120451258381E+01  1.133896673481E+01  1.147503433563E+01
  1.161273474766E+01  1.175208756463E+01  1.189311261540E+01  1.203582996679E+01
  1.218025992639E+01  1.232642304551E+01  1.247434012205E+01  1.262403220352E+01
  1.277552058996E+01  1.292882683704E+01  1.308397275908E+01  1.324098043219E+01
  1.339987219738E+01  1.356067066375E+01  1.372339871171E+01  1.388807949625E+01
  1.405473645021E+01  1.422339328761E+01  1.439407400706E+01  1.456680289515E+01
  1.474160452989E+01  1.491850378425E+01  1.509752582966E+01  1.527869613961E+01
  1.546204049329E+01  1.564758497921E+01  1.583535599896E+01  1.602538027095E+01
  1.621768483420E+01  1.641229705221E+01  1.660924461684E+01  1.680855555224E+01
  1.701025821886E+01  1.721438131749E+01  1.742095389330E+01  1.763000534002E+01
  1.784156540410E+01  1.805566418895E+01  1.827233215922E+01  1.849160014513E+01
  1.871349934687E+01  1.893806133903E+01  1.916531807510E+01  1.939530189200E+01
  1.962804551471E+01  1.986358206088E+01  2.010194504561E+01  2.034316838616E+01
  2.058728640679E+01  2.083433384368E+01  2.108434584980E+01  2.133735800000E+01
  2.159340629600E+01  2.185252717155E+01  2.211475749761E+01  2.238013458758E+01
  2.264869620263E+01  2.292048055706E+01  2.319552632375E+01  2.347387263963E+01
  2.375555911131E+01  2.404062582064E+01  2.432911333049E+01  2.462106269046E+01
  2.491651544274E+01  2.521551362805E+01  2.551809979159E+01  2.582431698909E+01
  2.613420879296E+01  2.644781929847E+01  2.676519313006E+01  2.708637544762E+01
  2.741141195299E+01  2.774034889642E+01  2.807323308318E+01  2.841011188018E+01
  2.875103322274E+01  2.909604562141E+01  2.944519816887E+01  2.979854054690E+01
  3.015612303346E+01  3.051799650986E+01  3.088421246798E+01  3.125482301760E+01
  3.162988089381E+01  3.200943946453E+01  3.239355273811E+01  3.278227537096E+01
  3.317566267542E+01  3.357377062752E+01  3.397665587505E+01  3.438437574555E+01
  3.479698825450E+01  3.521455211355E+01  3.563712673892E+01  3.606477225978E+01
  3.649754952690E+01  3.693552012122E+01  3.737874636268E+01  3.782729131903E+01
  3.828121881486E+01  3.874059344064E+01  3.920548056192E+01  3.967594632867E+01
  4.015205768461E+01  4.063388237683E+01  4.112148896535E+01  4.161494683293E+01
  4.211432619493E+01  4.261969810927E+01  4.313113448658E+01  4.364870810042E+01
  4.417249259762E+01
</grid-data>
</grid>
<valence-charge total-charge="18" is-unscreening-charge="yes"
 rescaled-to-z-pseudo="no">
<radfunc>
<data npts="457">
  9.777057526477E-01  9.786934016908E-01  9.816468194802E-01  9.865774914867E-01
  9.934397909904E-01  1.002475335763E+00  1.014011348200E+00  1.027249040883E+00
  1.042169032232E+00  1.059615681152E+00  1.079342381749E+00  1.100857575799E+00
  1.126962095492E+00  1.154344729875E+00  1.186802669307E+00  1.219385969773E+00
  1.257113104993E+00  1.293077951842E+00  1.333745089340E+00  1.379746706259E+00
  1.431803706971E+00  1.478358235249E+00  1.529786751514E+00  1.586616851156E+00
  1.649435637243E+00  1.718896565894E+00  1.795727003695E+00  1.858669741105E+00
  1.926586127674E+00  1.999882105999E+00  2.078997202297E+00  2.164407062103E+00
  2.256626077021E+00  2.356210073674E+00  2.463759024694E+00  2.579919727598E+00
  2.705388380135E+00  2.840912959642E+00  2.937242999002E+00  3.038648781884E+00
  3.145392637811E+00  3.257748082654E+00  3.375999811450E+00  3.500443591028E+00
  3.631386033649E+00  3.769144230494E+00  3.914045221261E+00  4.066425273376E+00
  4.226628941433E+00  4.395007874395E+00  4.571919334969E+00  4.757724392335E+00
  4.952785746235E+00  5.157465137301E+00  5.372120295638E+00  5.597101377088E+00
  5.832746834558E+00  6.079378670410E+00  6.337297015490E+00  6.606773981123E+00
  6.888046732669E+00  7.181309737425E+00  7.486706146059E+00  7.804318275975E+00
  8.134157177413E+00  8.476151279197E+00  8.830134131544E+00  9.011540168683E+00
  9.195831288555E+00  9.382954029446E+00  9.572846403636E+00  9.765437427963E+00
  9.960646647491E+00  1.015838365396E+01  1.035854760089E+01  1.056102671744E+01
  1.076569782338E+01  1.097242584781E+01  1.118106335439E+01  1.139145007636E+01
  1.160341246463E+01  1.181676325274E+01  1.203130104262E+01  1.224680991548E+01
  1.246305907236E+01  1.267980250929E+01  1.289677873215E+01  1.311371051663E+01
  1.333030471915E+01  1.354625214438E+01  1.376122747584E+01  1.397488927567E+01
  1.418688006015E+01  1.439682645763E+01  1.460433945536E+01  1.480901474216E+01
  1.501043315329E+01  1.520816122418E+01  1.540175185929E+01  1.559074512209E+01
  1.577466915183E+01  1.595304121225E+01  1.612536887680E+01  1.629115135436E+01
  1.644988095838E+01  1.660104472174E+01  1.674412615837E+01  1.687860717143E+01
  1.700397010684E+01  1.711969994913E+01  1.722528665525E+01  1.732022762025E+01
  1.740403026690E+01  1.747621474950E+01  1.753631676002E+01  1.758389042292E+01
  1.761851126261E+01  1.763977922567E+01  1.764732173759E+01  1.764079677211E+01
  1.761989590867E+01  1.758434735232E+01  1.753391888792E+01  1.746842073963E+01
  1.738770830481E+01  1.729168473074E+01  1.718030330166E+01  1.705356960337E+01
  1.691154343243E+01  1.675434041785E+01  1.658213332364E+01  1.639515300218E+01
  1.619368897052E+01  1.597808958372E+01  1.574876178269E+01  1.550617039733E+01
  1.525083698989E+01  1.498333822780E+01  1.470430378031E+01  1.441441373855E+01
  1.411439556432E+01  1.380502057858E+01  1.348710000723E+01  1.316148060720E+01
  1.282903990258E+01  1.249068106630E+01  1.214732748849E+01  1.179991707828E+01
  1.144939635071E+01  1.109671435453E+01  1.074281650091E+01  1.038863835545E+01
  1.003509945857E+01  9.683097240174E+00  9.333501095208E+00  8.987146685632E+00
  8.644830533113E+00  8.307304963837E+00  7.975273463378E+00  7.649386495047E+00
  7.330237829814E+00  7.018361429765E+00  6.714228920349E+00  6.418247679970E+00
  6.130759569937E+00  5.852040321144E+00  5.582299583604E+00  5.321681635730E+00
  5.070266743323E+00  4.828073150994E+00  4.595059682385E+00  4.371130929474E+00
  4.156150982671E+00  3.949962006638E+00  3.752387747122E+00  3.563235412906E+00
  3.382298397462E+00  3.209358517539E+00  3.044188146732E+00  2.886552198027E+00
  2.736209958111E+00  2.592916775348E+00  2.456425603980E+00  2.326488408099E+00
  2.202857429702E+00  2.085286325820E+00  1.973531180271E+00  1.867351396022E+00
  1.766510474494E+00  1.670776688381E+00  1.579923654707E+00  1.493730814938E+00
  1.411983828959E+00  1.334474889744E+00  1.261002964982E+00  1.191373972938E+00
  1.125400898025E+00  1.062903852533E+00  1.003710090241E+00  9.476539773927E-01
  8.945769262579E-01  8.443272961422E-01  7.967602664349E-01  7.517376859285E-01
  7.091279023376E-01  6.688055756203E-01  6.306514783960E-01  5.945522864488E-01
  5.604003620127E-01  5.280935322566E-01  4.975348651159E-01  4.686324443696E-01
  4.412991456209E-01  4.154524146177E-01  3.910140491445E-01  3.679099855252E-01
  3.460700906010E-01  3.254279598877E-01  3.059207224740E-01  2.874888530870E-01
  2.700759916381E-01  2.536287704570E-01  2.380966493288E-01  2.234317583706E-01
  2.095887487128E-01  1.965246508927E-01  1.841987408161E-01  1.725724131013E-01
  1.616090615864E-01  1.512739667513E-01  1.415341897886E-01  1.323584730375E-01
  1.237171464885E-01  1.155820400564E-01  1.079264013210E-01  1.007248184307E-01
  9.395314787283E-02  8.758844681518E-02  8.160890973535E-02  7.599380906082E-02
  7.072343955416E-02  6.577906618935E-02  6.114287527662E-02  5.679792860612E-02
  5.272812039324E-02  4.891813682123E-02  4.535341798966E-02  4.202012208846E-02
  3.890509163277E-02  3.599582160131E-02  3.328042933566E-02  3.074762606724E-02
  2.838668994971E-02  2.618744048403E-02  2.414021423278E-02  2.223584172914E-02
  2.046562549378E-02  1.882131908085E-02  1.729510708090E-02  1.587958601531E-02
  1.456774606270E-02  1.335295356338E-02  1.222893425273E-02  1.118975717936E-02
  1.022981926772E-02  9.343830489073E-03  8.526799607792E-03  7.774020473427E-03
  7.081058831664E-03  6.443739629879E-03  5.858134795304E-03  5.320551465879E-03
  4.827520655697E-03  4.375786338597E-03  3.962294934916E-03  3.584185187686E-03
  3.238778415729E-03  2.923569132069E-03  2.636216016968E-03  2.374533235644E-03
  2.136482091383E-03  1.920163005318E-03  1.723807814596E-03  1.545772381095E-03
  1.384529503128E-03  1.238662122866E-03  1.106856822422E-03  9.878976016723E-04
  8.806599310516E-04  7.841050725909E-04  6.972746625613E-04  6.192855490809E-04
  5.493248780583E-04  4.866454208221E-04  4.305611367630E-04  3.804429642718E-04
  3.357148332149E-04  2.958498921408E-04  2.603669433661E-04  2.288270790441E-04
  2.008305112868E-04  1.760135893758E-04  1.540459970848E-04  1.346281231253E-04
  1.174885977339E-04  1.023819884394E-04  8.908664808256E-05  7.740270821118E-05
  6.715021103828E-05  5.816737323425E-05  5.030897491898E-05  4.344486733333E-05
  3.745859279571E-05  3.224611069051E-05  2.771462338848E-05  2.378149616542E-05
  2.037326536160E-05  1.742472921111E-05  1.487811596477E-05  1.268232413231E-05
  1.079222987689E-05  9.168056807459E-06  7.774803629607E-06  6.581725332553E-06
  5.561863807938E-06  4.691624013104E-06  3.950392007138E-06  3.320191400762E-06
  2.785374970253E-06  2.332348390176E-06  1.949323238933E-06  1.626096624367E-06
  1.353854963303E-06  1.124999628415E-06  9.329923478573E-07  7.722184073125E-07
  6.378658603039E-07  5.258191006032E-07  4.325652903277E-07  3.551122688020E-07
  2.909166905624E-07  2.378212560983E-07  1.940000062488E-07  1.579107507903E-07
  1.282537939367E-07  1.039362044898E-07  8.404095654378E-08  6.780033827882E-08
  5.457309182451E-08  4.382480677155E-08  3.511114402498E-08  2.806351566894E-08
  2.237689070811E-08  1.779943630810E-08  1.412373981351E-08  1.117938870357E-08
  8.826714065595E-09  6.951528423948E-09  5.460711141724E-09  4.278514382160E-09
  3.343480027606E-09  2.605873241846E-09  2.025551744216E-09  1.570201543577E-09
  1.213880042418E-09  9.358162364127E-10  7.194253578472E-10  5.515018834414E-10
  4.215604756229E-10  3.212992660863E-10  2.441640243496E-10  1.849952739568E-10
  1.397434067090E-10  1.052393733001E-10  7.901066091136E-11  5.913406090799E-11
  4.411823199489E-11  3.281031898292E-11  2.432193200678E-11  1.797065793444E-11
  1.323399267827E-11  9.713174125215E-12  7.104880703969E-12  5.179159701491E-12
  3.762265206344E-12  2.368883319506E-12  1.712157766255E-12  1.233030624675E-12
  8.847391931102E-13  6.324833541701E-13  4.504600027377E-13  3.196077495386E-13
  2.258981550830E-13  1.590459167679E-13  1.115389911391E-13  7.791209626158E-14
  5.420463739069E-14  3.755783122713E-14  2.591647614952E-14  1.780907607318E-14
  1.218639275063E-14  8.303388875003E-15  5.633260353890E-15  3.805099776420E-15
  2.558888255236E-15  1.713139099703E-15  1.141738578130E-15  7.574428836026E-16
  5.001708825208E-16  3.287366081787E-16  2.150376151980E-16  1.399886278798E-16
  9.068970531896E-17  5.846349696476E-17  3.750140129821E-17  2.393426782991E-17
  1.519765075840E-17  9.600411291550E-18  6.033000530596E-18  3.771201939430E-18
  2.344776969551E-18  1.450009040077E-18  8.917827225011E-19  5.454287000506E-19
  3.317252850372E-19  2.006095213215E-19  1.206222010097E-19  7.210671394491E-20
  4.285155157571E-20  2.531448320614E-20  1.486456305935E-20  8.675296314398E-21
  5.031919738695E-21  2.900467743687E-21  1.661325115803E-21  9.454974000317E-22
  5.346277156809E-22  3.003269909082E-22  0.000000000000E+00  0.000000000000E+00
  0.000000000000E+00  0.000000000000E+00  0.000000000000E+00  0.000000000000E+00
  0.000000000000E+00  0.000000000000E+00  0.000000000000E+00  0.000000000000E+00
  0.000000000000E+00  0.000000000000E+00  0.000000000000E+00  0.000000000000E+00
  0.000000000000E+00  0.000000000000E+00  0.000000000000E+00  0.000000000000E+00
  0.000000000000E+00
</data>
</radfunc>
</valence-charge>
<pseudocore-charge matching-radius="0.812232228567"
 number-of-continuous-derivatives="4">
<annotation model-charge-form="Teter function with specified parameters" />
<radfunc>
<data npts="275">
  9.248820992867E+01  9.248220580030E+01  9.246425747809E+01  9.243431362954E+01
  9.239268165035E+01  9.233794039507E+01  9.226817395189E+01  9.218828610033E+01
  9.209846170020E+01  9.199371346363E+01  9.187564581621E+01  9.174731623464E+01
  9.159222517513E+01  9.143025159309E+01  9.123918439954E+01  9.104837440081E+01
  9.082866411480E+01  9.062041481136E+01  9.038631768282E+01  9.012324079320E+01
  8.982769322092E+01  8.956527943353E+01  8.927741930381E+01  8.896173641189E+01
  8.861565152456E+01  8.823636937254E+01  8.782086549514E+01  8.748351153965E+01
  8.712247935120E+01  8.673621447985E+01  8.632307695242E+01  8.588133920369E+01
  8.540918444036E+01  8.490470554384E+01  8.436590463352E+01  8.379069342919E+01
  8.317689457013E+01  8.252224406882E+01  8.206195937694E+01  8.158176220241E+01
  8.108092333792E+01  8.055870019982E+01  8.001433808736E+01  7.944707164984E+01
  7.885612658029E+01  7.824072155502E+01  7.760007043963E+01  7.693338478235E+01
  7.623987661678E+01  7.551876159631E+01  7.476926248302E+01  7.399061301406E+01
  7.318206216823E+01  7.234287885552E+01  7.147235705099E+01  7.056982139386E+01
  6.963463327038E+01  6.866619739716E+01  6.766396891856E+01  6.662746102808E+01
  6.555625311897E+01  6.444999946402E+01  6.330843841765E+01  6.213140212589E+01
  6.091882672055E+01  5.967076296367E+01  5.838738729632E+01  5.773254979743E+01
  5.706901323240E+01  5.639684012206E+01  5.571610302296E+01  5.502688490007E+01
  5.432927949970E+01  5.362339172146E+01  5.290933798823E+01  5.218724661298E+01
  5.145725816088E+01  5.071952580559E+01  4.997421567798E+01  4.922150720584E+01
  4.846159344282E+01  4.769468138474E+01  4.692099227156E+01  4.614076187273E+01
  4.535424075413E+01  4.456169452411E+01  4.376340405657E+01  4.295966568853E+01
  4.215079138979E+01  4.133710890209E+01  4.051896184507E+01  3.969670978644E+01
  3.887072827342E+01  3.804140882261E+01  3.720915886562E+01  3.637440164716E+01
  3.553757607297E+01  3.469913650446E+01  3.385955249717E+01  3.301930848008E+01
  3.217890337304E+01  3.133885013937E+01  3.049967527104E+01  2.966191820384E+01
  2.882613066014E+01  2.799287591697E+01  2.716272799748E+01  2.633627078389E+01
  2.551409705066E+01  2.469680741652E+01  2.388500921466E+01  2.307931528074E+01
  2.228034265868E+01  2.148871122484E+01  2.070504223166E+01  1.992995677234E+01
  1.916407416895E+01  1.840801028666E+01  1.766237577798E+01  1.692777426107E+01
  1.620480043739E+01  1.549403815456E+01  1.479605842110E+01  1.411141738061E+01
  1.344065425400E+01  1.278428925870E+01  1.214282151547E+01  1.151672695350E+01
  1.090645622581E+01  1.031243264768E+01  9.735050171580E+00  9.174671412705E+00
  8.631625740149E+00  8.106207449028E+00  7.598674029546E+00  7.109244549289E+00
  6.638098165308E+00  6.185372782631E+00  5.751163875798E+00  5.335523489801E+00
  4.938459436352E+00  4.559934700810E+00  4.199867074229E+00  3.858129023956E+00
  3.534547814846E+00  3.228905891673E+00  2.940941531466E+00  2.670349772489E+00
  2.416783624288E+00  2.179855560713E+00  1.959139295075E+00  1.754171833675E+00
  1.564455800822E+00  1.389462025187E+00  1.228632373972E+00  1.081382817947E+00
  9.471067069292E-01  8.251782318541E-01  7.149560462721E-01  6.157870169006E-01
  5.270100699226E-01  4.479600970554E-01  3.779718831108E-01  3.163840149105E-01
  2.625427300580E-01  2.158056632862E-01  1.755454479430E-01  1.411531307134E-01
  1.120413589318E-01  8.764730186184E-02  6.743527011359E-02  5.089900093609E-02
  3.756358145009E-02  2.698698692453E-02  1.876121689767E-02  1.251301821264E-02
  7.904190774854E-03  4.631478917842E-03  2.426058539538E-03  1.052637478173E-03
  3.081937584575E-04  2.038316576833E-05  4.565390554531E-05  2.671116843389E-04
  5.921832226386E-04  9.501298069639E-04  1.289464860756E-03  1.575330540682E-03
  1.786887963776E-03  1.914773800980E-03  1.958672641845E-03  1.925049803427E-03
  1.825083237877E-03  1.672826056258E-03  1.483623150529E-03  1.272796727520E-03
  1.054606572472E-03  8.414818670684E-04  6.435127440478E-04  4.681818126220E-04
  3.203089637029E-04  2.021771540045E-04  1.138028142120E-04  5.331220158621E-05
  1.738451367803E-05  1.723898671862E-06  1.525544948294E-06  1.190561809808E-05
  2.827065926748E-05  4.660880958682E-05  6.369246927303E-05  7.718929113667E-05
  8.568529576406E-05  8.862995400533E-05  8.621794213405E-05  7.922565146942E-05
  6.882225135274E-05  5.637511152114E-05  4.326776933039E-05  3.074559063149E-05
  1.980014677018E-05  1.109852931858E-05  4.958817277711E-06  1.368178122493E-06
  3.606915332394E-08  4.720752483199E-07  2.076322199462E-06  4.230245545375E-06
  6.376719642335E-06  8.080953601846E-06  9.066801322167E-06  9.226781282691E-06
  8.607686362929E-06  7.376731069377E-06  5.775356449991E-06  4.068842484100E-06
  2.499677308301E-06  1.251291610886E-06  4.265382405543E-07  4.256203287399E-08
  0.000000000000E+00  0.000000000000E+00  0.000000000000E+00  0.000000000000E+00
  0.000000000000E+00  0.000000000000E+00  0.000000000000E+00  0.000000000000E+00
  0.000000000000E+00  0.000000000000E+00  0.000000000000E+00  0.000000000000E+00
  0.000000000000E+00  0.000000000000E+00  0.000000000000E+00  0.000000000000E+00
  0.000000000000E+00  0.000000000000E+00  0.000000000000E+00  0.000000000000E+00
  0.000000000000E+00  0.000000000000E+00  0.000000000000E+00  0.000000000000E+00
  0.000000000000E+00  0.000000000000E+00  0.000000000000E+00  0.000000000000E+00
  0.000000000000E+00  0.000000000000E+00  0.000000000000E+00  0.000000000000E+00
  0.000000000000E+00  0.000000000000E+00  0.000000000000E+00
</data>
</radfunc>
</pseudocore-charge>
<semilocal-potentials set="scalar_relativistic">
<slps n="5" l="s" rc="1.45722069575" eref="-3.75585075399">
<radfunc>
<data npts="275">
  4.519370015877E+00  4.511635608494E+00  4.488533634108E+00  4.450054038501E+00
  4.396683533620E+00  4.326734939392E+00  4.237959587720E+00  4.136814328096E+00
  4.023732713506E+00  3.892716784310E+00  3.746131918593E+00  3.588102445931E+00
  3.398896175285E+00  3.203341374982E+00  2.975307504858E+00  2.750390092535E+00
  2.494818408466E+00  2.255884653876E+00  1.991057350570E+00  1.698095869117E+00
  1.374702908816E+00  1.092519186350E+00  7.881956378132E-01  4.605799357089E-01
  1.085670814754E-01 -2.688771821553E-01 -6.726901305378E-01 -9.933480091043E-01
 -1.329583770396E+00 -1.681625846761E+00 -2.049637230985E+00 -2.433707346256E+00
 -2.833843928902E+00 -3.249965071900E+00 -3.681891593447E+00 -4.129339908094E+00
 -4.591915586996E+00 -5.069107797642E+00 -5.395049350730E+00 -5.726991190482E+00
 -6.064690752839E+00 -6.407880503671E+00 -6.756267932733E+00 -7.109535692127E+00
 -7.467341883237E+00 -7.829320494254E+00 -8.195081988482E+00 -8.564214041516E+00
 -8.936282423220E+00 -9.310832018213E+00 -9.687387976352E+00 -1.006545698252E+01
 -1.044452863293E+01 -1.082407690326E+01 -1.120356169202E+01 -1.158243042131E+01
 -1.196011967546E+01 -1.233605685761E+01 -1.270966184314E+01 -1.308034860903E+01
 -1.344752681829E+01 -1.381060333890E+01 -1.416898367799E+01 -1.452207331302E+01
 -1.486927890353E+01 -1.521000936914E+01 -1.554367682171E+01 -1.570767927044E+01
 -1.586969734233E+01 -1.602965876869E+01 -1.618749159686E+01 -1.634312420041E+01
 -1.649648528679E+01 -1.664750390247E+01 -1.679610943565E+01 -1.694223161648E+01
 -1.708580051505E+01 -1.722674653710E+01 -1.736500041768E+01 -1.750049321279E+01
 -1.763315628918E+01 -1.776292131252E+01 -1.788972023408E+01 -1.801348527607E+01
 -1.813414891592E+01 -1.825164386973E+01 -1.836590307507E+01 -1.847685967350E+01
 -1.858444699289E+01 -1.868859853017E+01 -1.878924793447E+01 -1.888632899122E+01
 -1.897977560749E+01 -1.906952179891E+01 -1.915550167861E+01 -1.923764944862E+01
 -1.931589939399E+01 -1.939018588035E+01 -1.946044335507E+01 -1.952660635280E+01
 -1.958860950569E+01 -1.964638755886E+01 -1.969987539173E+01 -1.974900804576E+01
 -1.979372075907E+01 -1.983394900875E+01 -1.986962856123E+01 -1.990069553160E+01
 -1.992708645238E+01 -1.994873835241E+01 -1.996558884667E+01 -1.997757623760E+01
 -1.998463962872E+01 -1.998671905120E+01 -1.998375560422E+01 -1.997569160971E+01
 -1.996247078235E+01 -1.994403841547E+01 -1.992034158356E+01 -1.989132936224E+01
 -1.985695306622E+01 -1.981716650605E+01 -1.977192626420E+01 -1.972119199123E+01
 -1.966492672246E+01 -1.960309721579E+01 -1.953567431114E+01 -1.946263331179E+01
 -1.938395438821E+01 -1.929962300455E+01 -1.920963036798E+01 -1.911397390132E+01
 -1.901265773886E+01 -1.890569324575E+01 -1.879309956106E+01 -1.867490416468E+01
 -1.855114346869E+01 -1.842186343347E+01 -1.828712020973E+01 -1.814698080768E+01
 -1.800152379529E+01 -1.785084002850E+01 -1.769503341714E+01 -1.753422173190E+01
 -1.736853745910E+01 -1.719812871248E+01 -1.702316021355E+01 -1.684381435530E+01
 -1.666029236765E+01 -1.647281560744E+01 -1.628162700041E+01 -1.608699266836E+01
 -1.588920378036E+01 -1.568857867348E+01 -1.548546529478E+01 -1.528024402238E+01
 -1.507333092936E+01 -1.486518155767E+01 -1.465629527151E+01 -1.444722025795E+01
 -1.423855923596E+01 -1.403097592313E+01 -1.382520228849E+01 -1.362204658995E+01
 -1.342240215342E+01 -1.322725679656E+01 -1.303770273255E+01 -1.285494670972E+01