<?xml version="1.0" encoding="UTF-8" ?>
<psml version="1.1" energy_unit="hartree" length_unit="bohr"
 uuid="d4573730-23d2-11e8-4352-811e59f75000"
 xmlns="http://esl.cecam.org/PSML/ns/1.1">
<provenance creator="ONCVPSP-3.3.0+psml-3.3.0-73 (scalar-relativistic)"
 date="2018-03-09">
<annotation action="semilocal-pseudopotential-generation"
 action-cont="projectors-generation" />
<input-file name="oncvpsp-input">
<![CDATA[# atsym z nc nv iexc psfile
Rb 37 6 3 -001012 upf
# n l f
1 0 2.0
2 0 2.0
2 1 6.0
3 0 2.0
3 1 6.0
3 2 10.0
4 0 2.0
4 1 6.0
5 0 1.0
# lmax
2
# l rc ep ncon nbas qcut
0 1.7 0.0 4 9 6.6
1 1.75 0.0 4 9 6.6
2 1.95 0.1 4 9 7.4
# lloc lpopt rc5 dvloc0
4 5 1.7 2.5
# l nproj debl
0 2 1.0
1 2 3.5
2 2 2.5
# icmod fcfact rcfact
3 7.0 1.25
# epsh1 epsh2 depsh
-12.0 12.0 0.02
# rlmax drl
6.0 0.01
 0
]]>
</input-file>
</provenance>
<pseudo-atom-spec atomic-label="Rb" atomic-number="37" z-pseudo="9"
 flavor="Hamann&apos;s oncvpsp" relativity="scalar" spin-dft="no"
 core-corrections="yes">
<annotation pseudo-energy="-24.3618087562" />
<exchange-correlation>
<annotation oncvpsp-xc-code="-1012" oncvpsp-xc-type="libxc-interface" />
<libxc-info number-of-functionals="2">
<functional name="Slater exchange (LDA)" type="exchange" id="1" />
<functional name="Perdew &amp; Wang (LDA)" type="correlation" id="12" />
</libxc-info>
</exchange-correlation>
<valence-configuration total-valence-charge="9">
<shell n="4" l="s" occupation="2" />
<shell n="4" l="p" occupation="6" />
<shell n="5" l="s" occupation="1" />
</valence-configuration>
</pseudo-atom-spec>
<grid npts="458">
<annotation type="sampled from oncvpsp log grid"
 recipe="r(i:1..N) = r1*exp(a*(i-1)) + r=0; resampled"
 recipe-cont="r1: scale; a: step" scale="0.135135135135E-04"
 step="0.119285708653E-01" delta="0.500000000000E-02" rmax="44.4480804401" />
<grid-data>
  0.000000000000E+00  5.015364275536E-03  1.001779654873E-02  1.502829226536E-02
  2.024987958689E-02  2.540108002142E-02  3.074258501631E-02  3.589938802680E-02
  4.093291586519E-02  4.611877975066E-02  5.134550390486E-02  5.648674120200E-02
  6.214277179039E-02  6.755448818428E-02  7.256668482434E-02  7.795076075524E-02
  8.373430751356E-02  8.888039899844E-02  9.434275580343E-02  1.001408147677E-01
  1.062952072679E-01  1.114899531924E-01  1.169385711956E-01  1.226534682428E-01
  1.286476576391E-01  1.349347886622E-01  1.415291776427E-01  1.466856132050E-01
  1.520299169380E-01  1.575689335796E-01  1.633097572469E-01  1.692597405222E-01
  1.754265038697E-01  1.818179453957E-01  1.884422509637E-01  1.953079046791E-01
  2.024236997544E-01  2.097987497720E-01  2.148641307865E-01  2.200518103602E-01
  2.253647412695E-01  2.308059475827E-01  2.363785263812E-01  2.420856495221E-01
  2.479305654442E-01  2.539166010163E-01  2.600471634312E-01  2.663257421451E-01
  2.727559108634E-01  2.793413295753E-01  2.860857466366E-01  2.929930009034E-01
  3.000670239172E-01  3.073118421427E-01  3.147315792594E-01  3.223304585090E-01
  3.301128050992E-01  3.380830486655E-01  3.462457257925E-01  3.546054825961E-01
  3.631670773679E-01  3.719353832838E-01  3.809153911778E-01  3.901122123824E-01
  3.995310816382E-01  4.091773600733E-01  4.190565382549E-01  4.240852167139E-01
  4.291742393145E-01  4.343243301863E-01  4.395362221485E-01  4.448106568143E-01
  4.501483846961E-01  4.555501653124E-01  4.610167672962E-01  4.665489685037E-01
  4.721475561258E-01  4.778133267993E-01  4.835470867209E-01  4.893496517615E-01
  4.952218475827E-01  5.011645097536E-01  5.071784838707E-01  5.132646256771E-01
  5.194238011853E-01  5.256568867995E-01  5.319647694411E-01  5.383483466744E-01
  5.448085268345E-01  5.513462291565E-01  5.579623839064E-01  5.646579325132E-01
  5.714338277034E-01  5.782910336358E-01  5.852305260395E-01  5.922532923519E-01
  5.993603318602E-01  6.065526558425E-01  6.138312877126E-01  6.211972631651E-01
  6.286516303231E-01  6.361954498870E-01  6.438297952856E-01  6.515557528291E-01
  6.593744218630E-01  6.672869149254E-01  6.752943579045E-01  6.833978901993E-01
  6.915986648817E-01  6.998978488603E-01  7.082966230466E-01  7.167961825232E-01
  7.253977367135E-01  7.341025095540E-01  7.429117396687E-01  7.518266805447E-01
  7.608486007112E-01  7.699787839198E-01  7.792185293268E-01  7.885691516787E-01
  7.980319814989E-01  8.076083652769E-01  8.172996656602E-01  8.271072616481E-01
  8.370325487879E-01  8.470769393733E-01  8.572418626458E-01  8.675287649976E-01
  8.779391101775E-01  8.884743794997E-01  8.991360720537E-01  9.099257049183E-01
  9.208448133773E-01  9.318949511379E-01  9.430776905515E-01  9.543946228381E-01
  9.658473583122E-01  9.774375266119E-01  9.891667769313E-01  1.001036778254E+00
  1.013049219594E+00  1.025205810229E+00  1.037508279951E+00  1.049958379311E+00
  1.062557879863E+00  1.075308574421E+00  1.088212277314E+00  1.101270824642E+00
  1.114486074537E+00  1.127859907432E+00  1.141394226321E+00  1.155090957037E+00
  1.168952048521E+00  1.182979473104E+00  1.197175226781E+00  1.211541329502E+00
  1.226079825456E+00  1.240792783362E+00  1.255682296762E+00  1.270750484323E+00
  1.285999490135E+00  1.301431484017E+00  1.317048661825E+00  1.332853245767E+00
  1.348847484716E+00  1.365033654533E+00  1.381414058387E+00  1.397991027088E+00
  1.414766919413E+00  1.431744122446E+00  1.448925051915E+00  1.466312152538E+00
  1.483907898368E+00  1.501714793149E+00  1.519735370667E+00  1.537972195115E+00
  1.556427861456E+00  1.575104995793E+00  1.594006255743E+00  1.613134330812E+00
  1.632491942782E+00  1.652081846095E+00  1.671906828248E+00  1.691969710187E+00
  1.712273346709E+00  1.732820626870E+00  1.753614474392E+00  1.774657848085E+00
  1.795953742262E+00  1.817505187169E+00  1.839315249415E+00  1.861387032408E+00
  1.883723676797E+00  1.906328360919E+00  1.929204301250E+00  1.952354752865E+00
  1.975783009899E+00  1.999492406018E+00  2.023486314890E+00  2.047768150669E+00
  2.072341368477E+00  2.097209464898E+00  2.122375978477E+00  2.147844490219E+00
  2.173618624102E+00  2.199702047591E+00  2.226098472162E+00  2.252811653828E+00
  2.279845393674E+00  2.307203538398E+00  2.334889980859E+00  2.362908660629E+00
  2.391263564557E+00  2.419958727331E+00  2.448998232059E+00  2.478386210844E+00
  2.508126845374E+00  2.538224367518E+00  2.568683059929E+00  2.599507256648E+00
  2.630701343728E+00  2.662269759852E+00  2.694216996971E+00  2.726547600934E+00
  2.759266172145E+00  2.792377366211E+00  2.825885894606E+00  2.859796525341E+00
  2.894114083645E+00  2.928843452649E+00  2.963989574081E+00  2.999557448970E+00
  3.035552138357E+00  3.071978764018E+00  3.108842509186E+00  3.146148619296E+00
  3.183902402727E+00  3.222109231560E+00  3.260774542339E+00  3.299903836847E+00
  3.339502682889E+00  3.379576715084E+00  3.420131635665E+00  3.461173215293E+00
  3.502707293876E+00  3.544739781403E+00  3.587276658780E+00  3.630323978685E+00
  3.673887866429E+00  3.717974520826E+00  3.762590215076E+00  3.807741297657E+00
  3.853434193229E+00  3.899675403548E+00  3.946471508390E+00  3.993829166491E+00
  4.041755116489E+00  4.090256177887E+00  4.139339252022E+00  4.189011323046E+00
  4.239279458922E+00  4.290150812429E+00  4.341632622179E+00  4.393732213645E+00
  4.446457000208E+00  4.499814484211E+00  4.553812258022E+00  4.608458005118E+00
  4.663759501179E+00  4.719724615193E+00  4.776361310576E+00  4.833677646303E+00
  4.891681778058E+00  4.950381959395E+00  5.009786542908E+00  5.069903981423E+00
  5.130742829200E+00  5.192311743150E+00  5.254619484068E+00  5.317674917877E+00
  5.381487016891E+00  5.446064861094E+00  5.511417639427E+00  5.577554651100E+00
  5.644485306913E+00  5.712219130596E+00  5.780765760163E+00  5.850134949285E+00
  5.920336568677E+00  5.991380607501E+00  6.063277174791E+00  6.136036500888E+00
  6.209668938899E+00  6.284184966166E+00  6.359595185760E+00  6.435910327989E+00
  6.513141251925E+00  6.591298946948E+00  6.670394534311E+00  6.750439268723E+00
  6.831444539948E+00  6.913421874427E+00  6.996382936920E+00  7.080339532163E+00
  7.165303606549E+00  7.251287249828E+00  7.338302696826E+00  7.426362329188E+00
  7.515478677138E+00  7.605664421264E+00  7.696932394319E+00  7.789295583051E+00
  7.882767130047E+00  7.977360335608E+00  8.073088659635E+00  8.169965723551E+00
  8.268005312233E+00  8.367221375980E+00  8.467628032492E+00  8.569239568882E+00
  8.672070443708E+00  8.776135289033E+00  8.881448912501E+00  8.988026299451E+00
  9.095882615045E+00  9.205033206425E+00  9.315493604902E+00  9.427279528161E+00
  9.540406882499E+00  9.654891765089E+00  9.770750466270E+00  9.887999471865E+00
  1.000665546553E+01  1.012673533111E+01  1.024825615509E+01  1.037123522895E+01
  1.049569005170E+01  1.062163833232E+01  1.074909799230E+01  1.087808716821E+01
  1.100862421423E+01  1.114072770480E+01  1.127441643726E+01  1.140970943451E+01
  1.154662594772E+01  1.168518545909E+01  1.182540768460E+01  1.196731257682E+01
  1.211092032774E+01  1.225625137167E+01  1.240332638813E+01  1.255216630479E+01
  1.270279230045E+01  1.285522580805E+01  1.300948851775E+01  1.316560237996E+01
  1.332358960852E+01  1.348347268382E+01  1.364527435603E+01  1.380901764830E+01
  1.397472586008E+01  1.414242257040E+01  1.431213164125E+01  1.448387722094E+01
  1.465768374759E+01  1.483357595256E+01  1.501157886399E+01  1.519171781036E+01
  1.537401842409E+01  1.555850664518E+01  1.574520872492E+01  1.593415122962E+01
  1.612536104437E+01  1.631886537691E+01  1.651469176143E+01  1.671286806257E+01
  1.691342247932E+01  1.711638354907E+01  1.732178015166E+01  1.752964151348E+01
  1.773999721164E+01  1.795287717818E+01  1.816831170432E+01  1.838633144477E+01
  1.860696742211E+01  1.883025103117E+01  1.905621404354E+01  1.928488861207E+01
  1.951630727541E+01  1.975050296272E+01  1.998750899827E+01  2.022735910625E+01
  2.047008741552E+01  2.071572846451E+01  2.096431720608E+01  2.121588901256E+01
  2.147047968071E+01  2.172812543688E+01  2.198886294212E+01  2.225272929742E+01
  2.251976204899E+01  2.278999919358E+01  2.306347918390E+01  2.334024093411E+01
  2.362032382532E+01  2.390376771122E+01  2.419061292376E+01  2.448090027884E+01
  2.477467108219E+01  2.507196713518E+01  2.537283074080E+01  2.567730470969E+01
  2.598543236620E+01  2.629725755460E+01  2.661282464525E+01  2.693217854100E+01
  2.725536468349E+01  2.758242905969E+01  2.791341820841E+01  2.824837922691E+01
  2.858735977763E+01  2.893040809496E+01  2.927757299210E+01  2.962890386801E+01
  2.998445071442E+01  3.034426412300E+01  3.070839529247E+01  3.107689603598E+01
  3.144981878841E+01  3.182721661387E+01  3.220914321324E+01  3.259565293180E+01
  3.298680076698E+01  3.338264237619E+01  3.378323408470E+01  3.418863289372E+01
  3.459889648844E+01  3.501408324630E+01  3.543425224526E+01  3.585946327220E+01
  3.628977683147E+01  3.672525415344E+01  3.716595720329E+01  3.761194868973E+01
  3.806329207400E+01  3.852005157889E+01  3.898229219784E+01  3.945007970421E+01
  3.992348066066E+01  4.040256242859E+01  4.088739317773E+01  4.137804189586E+01
  4.187457839862E+01  4.237707333940E+01  4.288559821947E+01  4.340022539811E+01
  4.392102810288E+01  4.444808044012E+01
</grid-data>
</grid>
<valence-charge total-charge="9" is-unscreening-charge="yes"
 rescaled-to-z-pseudo="no">
<radfunc>
<data npts="458">
  2.101035105970E-02  2.112358902719E-02  2.146221141532E-02  2.202753724313E-02
  2.285793433685E-02  2.391899317461E-02  2.527374338580E-02  2.682841534506E-02
  2.858077085242E-02  3.063003677049E-02  3.294732509514E-02  3.547497410870E-02
  3.854218132016E-02  4.176005534286E-02  4.498941973071E-02  4.872752269880E-02
  5.305644288459E-02  5.718391600656E-02  6.185202699533E-02  6.713384772391E-02
  7.311285795522E-02  7.846175698965E-02  8.437287614796E-02  9.090775622610E-02
  9.813508909339E-02  1.061316055200E-01  1.149830767688E-01  1.222400411648E-01
  1.300762832915E-01  1.385403852089E-01  1.476852401500E-01  1.575684464639E-01
  1.682527346930E-01  1.798064292997E-01  1.923039462248E-01  2.058263269937E-01
  2.204618094346E-01  2.363064342133E-01  2.475924926194E-01  2.594953776515E-01
  2.720501606747E-01  2.852938973508E-01  2.992657221005E-01  3.140069432625E-01
  3.295611381879E-01  3.459742473509E-01  3.632946663885E-01  3.815733347854E-01
  4.008638196996E-01  4.212223931819E-01  4.427081007673E-01  4.653828191136E-01
  4.893113000260E-01  5.145611978380E-01  5.412030767119E-01  5.693103939793E-01
  5.989594551603E-01  6.302293357768E-01  6.632017645143E-01  6.979609616828E-01
  7.345934262868E-01  7.731876643329E-01  8.138338502955E-01  8.566234129141E-01
  9.016485357383E-01  9.490015620594E-01  9.987742931021E-01  1.024596388287E+00
  1.051057167598E+00  1.078167566900E+00  1.105938310161E+00  1.134379871603E+00
  1.163502435276E+00  1.193315851947E+00  1.223829593181E+00  1.255052702521E+00
  1.286993743638E+00  1.319660745361E+00  1.353061143468E+00  1.387201719142E+00
  1.422088533993E+00  1.457726861558E+00  1.494121115188E+00  1.531274772255E+00
  1.569190294608E+00  1.607869045236E+00  1.647311201095E+00  1.687515662081E+00
  1.728479956162E+00  1.770200140688E+00  1.812670699928E+00  1.855884438940E+00
  1.899832373862E+00  1.944503618818E+00  1.989885269609E+00  2.035962284463E+00
  2.082717362136E+00  2.130130817727E+00  2.178180456641E+00  2.226841447187E+00
  2.276086192387E+00  2.325884201661E+00  2.376201963099E+00  2.427002817189E+00
  2.478246832903E+00  2.529890687187E+00  2.581887548985E+00  2.634186969057E+00
  2.686734776922E+00  2.739472986430E+00  2.792339711498E+00  2.845269093729E+00
  2.898191243681E+00  2.951032197656E+00  3.003713891988E+00  3.056154156829E+00
  3.108266731533E+00  3.159961303717E+00  3.211143574128E+00  3.261715349377E+00
  3.311574664565E+00  3.360615937731E+00  3.408730157893E+00  3.455805108290E+00
  3.501725626190E+00  3.546373900357E+00  3.589629806923E+00  3.631371284046E+00
  3.671474745287E+00  3.709815531165E+00  3.746268397819E+00  3.780708041152E+00
  3.813009654241E+00  3.843049515196E+00  3.870705602027E+00  3.895858230511E+00
  3.918390710448E+00  3.938190015203E+00  3.955147458953E+00  3.969159375699E+00
  3.980127793848E+00  3.987961100020E+00  3.992574685728E+00  3.993891570784E+00
  3.991842997537E+00  3.986368990591E+00  3.977418877261E+00  3.964951764833E+00
  3.948936971616E+00  3.929354409764E+00  3.906194918936E+00  3.879460550925E+00
  3.849164806377E+00  3.815332825645E+00  3.778001536484E+00  3.737219761745E+00
  3.693048290312E+00  3.645559914224E+00  3.594839434182E+00  3.540983634422E+00
  3.484101226223E+00  3.424312757189E+00  3.361750480874E+00  3.296558178526E+00
  3.228890921705E+00  3.158914761677E+00  3.086806328773E+00  3.012752322829E+00
  2.936948874504E+00  2.859600757064E+00  2.780920429358E+00  2.701126893435E+00
  2.620444354705E+00  2.539100678805E+00  2.457325647335E+00  2.375349024183E+00
  2.293398454978E+00  2.211697233732E+00  2.130461982437E+00  2.049900300511E+00
  1.970208450717E+00  1.891569155775E+00  1.814149584578E+00  1.738099607934E+00
  1.663550400779E+00  1.590613629917E+00  1.519381793225E+00  1.449929918021E+00
  1.382318892024E+00  1.316599789917E+00  1.252815093221E+00  1.190998292272E+00
  1.131174639673E+00  1.073361509307E+00  1.017568829347E+00  9.637995170324E-01
  9.120499180818E-01  8.623102480521E-01  8.145650330694E-01  7.687935475470E-01
  7.249702467090E-01  6.830651919280E-01  6.430444670837E-01  6.048705843628E-01
  5.685028779481E-01  5.338978846379E-01  5.010097100587E-01  4.697903797197E-01
  4.401901741538E-01  4.121579475686E-01  3.856414295724E-01  3.605875096794E-01
  3.369425044193E-01  3.146524069942E-01  2.936631195313E-01  2.739206680772E-01
  2.553714005661E-01  2.379621680747E-01  2.216404897434E-01  2.063547018100E-01
  1.920540912488E-01  1.786890145615E-01  1.662110022984E-01  1.545728499240E-01
  1.437286956669E-01  1.336340860105E-01  1.242460294986E-01  1.155230395368E-01
  1.074251668759E-01  9.991402246344E-02  9.295279134531E-02  8.650623829322E-02
  8.054070582186E-02  7.502410524740E-02  6.992590142259E-02  6.521709176577E-02
  6.087018018113E-02  5.685914644572E-02  5.315941161543E-02  4.974779997792E-02
  4.660249805480E-02  4.370301112902E-02  4.103011774666E-02  3.856582261474E-02
  3.629330828877E-02  3.419688601634E-02  3.226194607464E-02  3.047490791266E-02
  2.882317038101E-02  2.729506230583E-02  2.587979363669E-02  2.456740737313E-02
  2.334873244960E-02  2.221533773528E-02  2.115948728237E-02  2.017409693539E-02
  1.925269239385E-02  1.838936880200E-02  1.757875192196E-02  1.681596093074E-02
  1.609657286704E-02  1.541658874064E-02  1.477240130552E-02  1.416076448738E-02
  1.357876444717E-02  1.302379225431E-02  1.249351813663E-02  1.198586726817E-02
  1.149899705152E-02  1.103127584745E-02  1.058126310152E-02  1.014769081532E-02
  9.729446308180E-03  9.325556214237E-03  8.935171659248E-03  8.557554561405E-03
  8.192065000694E-03  7.838149601960E-03  7.495330877691E-03  7.163197477618E-03
  6.841395293523E-03  6.529619369025E-03  6.227606565661E-03  5.935128938187E-03
  5.651987773676E-03  5.378008250738E-03  5.113034676872E-03  4.856926263754E-03
  4.609553401962E-03  4.370794398389E-03  4.140532641281E-03  3.918654159516E-03
  3.705045544383E-03  3.499592203698E-03  3.302176919668E-03  3.112678683420E-03
  2.930971780571E-03  2.756925103644E-03  2.590401668325E-03  2.431258312984E-03
  2.279345559261E-03  2.134507616831E-03  1.996582513430E-03  1.865402333723E-03
  1.740793551479E-03  1.622577440547E-03  1.510570551203E-03  1.404585239374E-03
  1.304430237250E-03  1.209911254659E-03  1.120831601510E-03  1.036992822435E-03
  9.581953355676E-04  8.842390682299E-04  8.149240829908E-04  7.500511883406E-04
  6.894225288875E-04  6.328421506604E-04  5.801165377331E-04  5.310551169911E-04
  4.854707284320E-04  4.431800589374E-04  4.040040379630E-04  3.677681940729E-04
  3.343029716938E-04  3.034440078778E-04  2.750323692476E-04  2.489147496459E-04
  2.249436293294E-04  2.029773968316E-04  1.828804348709E-04  1.645231718991E-04
  1.477821010741E-04  1.325397685984E-04  1.186847334873E-04  1.061115009343E-04
  9.472043150572E-05  8.441762844030E-05  7.511480535045E-05  6.672913661178E-05
  5.918309270376E-05  5.240426271595E-05  4.632516617020E-05  4.088305622883E-05
  3.601971626495E-05  3.168125166560E-05  2.781787862337E-05  2.438371154970E-05
  2.133655061490E-05  1.863767078815E-05  1.625161361702E-05  1.414598285190E-05
  1.229124488809E-05  1.066053486779E-05  9.229469158137E-06  7.975964799635E-06
  6.880066403920E-06  5.923780870455E-06  5.090920189998E-06  4.366952508374E-06
  3.738861537777E-06  3.195014324688E-06  2.725037313570E-06  2.319700583684E-06
  1.970810082586E-06  1.671107633825E-06  1.414178457725E-06  1.194365912586E-06
  1.006693138644E-06  8.467912683178E-07  7.108338530710E-07  5.954771491234E-07
  4.978059007530E-07  4.152842604989E-07  3.457114896930E-07  2.871820899126E-07
  2.380500256923E-07  1.968967106990E-07  1.625024431420E-07  1.338209910767E-07
  1.099570440989E-07  9.014626441777E-08  7.373768712807E-08  6.017823645358E-08
  4.899914156779E-08  3.980405214149E-08  3.225866986314E-08  2.608172770373E-08
  2.103716355286E-08  1.692734896484E-08  1.358724706766E-08  1.087938617090E-08
  8.689547243178E-09  6.923074212139E-09  5.501725980494E-09  4.360998167531E-09
  3.447850906144E-09  2.718786582121E-09  2.138228236721E-09  1.677155503562E-09
  1.311960464467E-09  1.023490728900E-09  7.962514147460E-10  6.177415791181E-10
  4.779040608297E-10  3.686706933192E-10  2.835874688031E-10  2.175065193289E-10
  1.663337640565E-10  1.268227877537E-10  9.640699382890E-11  7.306334436546E-11
  5.520208514938E-11  4.157777877212E-11  3.121775436115E-11  2.336474699478E-11
  1.743105997258E-11  1.296205352183E-11  9.607157152431E-12  7.096931059096E-12
  5.224974592338E-12  3.833705457987E-12  2.803219370413E-12  2.042592752614E-12
  1.483116205236E-12  1.073048509240E-12  7.735638317580E-13  5.556319078300E-13
  3.976250786235E-13  2.834895300132E-13  2.013528543541E-13  1.424677806767E-13
  1.004139301585E-13  7.049686246036E-14  4.929739245145E-14  3.433491707131E-14
  2.381690081656E-14  1.645321279764E-14  1.131908095270E-14  7.754344578702E-15
  5.289696153300E-15  3.592907246141E-15  2.429789244455E-15  1.635972193280E-15
  1.096591950234E-15  7.317333333754E-16  4.860442552925E-16  3.213588231389E-16
  2.114813321784E-16  1.385150307513E-16  9.029011101451E-17  5.857023138397E-17
  3.780784742531E-17  2.428452660863E-17  0.000000000000E+00  0.000000000000E+00
  0.000000000000E+00  0.000000000000E+00
</data>
</radfunc>
</valence-charge>
<pseudocore-charge matching-radius="0.989166776931"
 number-of-continuous-derivatives="4">
<annotation model-charge-form="Teter function with specified parameters" />
<radfunc>
<data npts="291">
  2.864894735745E+01  2.864745813841E+01  2.864300626341E+01  2.863557867701E+01
  2.862467920235E+01  2.861077074162E+01  2.859304272118E+01  2.857274002294E+01
  2.854990850868E+01  2.852327892157E+01  2.849325708392E+01  2.846061850042E+01
  2.842116328942E+01  2.837994513763E+01  2.833875776093E+01  2.829130142608E+01
  2.823663429334E+01  2.818479602070E+01  2.812649703050E+01  2.806094732159E+01
  2.798726438418E+01  2.792180406118E+01  2.784995479849E+01  2.777111124253E+01
  2.768461450418E+01  2.758974823794E+01  2.748573461532E+01  2.740121666922E+01
  2.731069901494E+01  2.721377731449E+01  2.711002329583E+01  2.699898386010E+01
  2.688018024698E+01  2.675310727861E+01  2.661723270637E+01  2.647199668856E+01
  2.631681143135E+01  2.615106103000E+01  2.603437439125E+01  2.591250886349E+01
  2.578526141676E+01  2.565242375813E+01  2.551378248874E+01  2.536911930248E+01
  2.521821123059E+01  2.506083093681E+01  2.489674706809E+01  2.472572466604E+01
  2.454752564480E+01  2.436190934099E+01  2.416863314208E+01  2.396745319942E+01
  2.375812523260E+01  2.354040543203E+01  2.331405146663E+01  2.307882360376E+01
  2.283448594852E+01  2.258080780944E+01  2.231756519744E+01  2.204454246480E+01
  2.176153409010E+01  2.146834661507E+01  2.116480073785E+01  2.085073356678E+01
  2.052600103717E+01  2.019048049226E+01  1.984407342758E+01  1.966676398349E+01
  1.948670839587E+01  1.930390246357E+01  1.911834406713E+01  1.893003327229E+01
  1.873897243545E+01  1.854516631111E+01  1.834862216091E+01  1.814934986437E+01
  1.794736203090E+01  1.774267411311E+01  1.753530452097E+01  1.732527473676E+01
  1.711260943042E+01  1.689733657508E+01  1.667948756241E+01  1.645909731747E+01
  1.623620441266E+01  1.601085118041E+01  1.578308382416E+01  1.555295252714E+01
  1.532051155859E+01  1.508581937672E+01  1.484893872798E+01  1.460993674211E+01
  1.436888502217E+01  1.412585972911E+01  1.388094166014E+01  1.363421632009E+01
  1.338577398523E+01  1.313570975861E+01  1.288412361623E+01  1.263112044321E+01
  1.237681005913E+01  1.212130723158E+01  1.186473167726E+01  1.160720804950E+01
  1.134886591145E+01  1.108983969400E+01  1.083026863743E+01  1.057029671601E+01
  1.031007254451E+01  1.004974926588E+01  9.789484419036E+00  9.529439786106E+00
  9.269781218169E+00  9.010678438833E+00  8.752304824875E+00  8.494837163335E+00
  8.238455384480E+00  7.983342270145E+00  7.729683137070E+00  7.477665494960E+00
  7.227478679079E+00  6.979313457388E+00  6.733361612312E+00  6.489815497442E+00
  6.248867569611E+00  6.010709896975E+00  5.775533643953E+00  5.543528534062E+00
  5.314882291915E+00  5.089780065891E+00  4.868403833228E+00  4.650931789527E+00
  4.437537724947E+00  4.228390389595E+00  4.023652850926E+00  3.823481846208E+00
  3.628027133384E+00  3.437430843945E+00  3.251826841651E+00  3.071340091209E+00
  2.896086041251E+00  2.726170026133E+00  2.561686691300E+00  2.402719447112E+00
  2.249339956136E+00  2.101607659016E+00  1.959569344079E+00  1.823258765822E+00
  1.692696317380E+00  1.567888761965E+00  1.448829028080E+00  1.335496073091E+00
  1.227854819419E+00  1.125856167229E+00  1.029437087054E+00  9.385207952420E-01
  8.530170145063E-01  7.728223211965E-01  6.978205801185E-01  6.278834669277E-01
  5.628710772206E-01  5.026326204995E-01  4.470071961919E-01  3.958246478688E-01
  3.489064907451E-01  3.060669064781E-01  2.671137982063E-01  2.318498977345E-01
  2.000739157631E-01  1.715817251238E-01  1.461675661248E-01  1.236252623627E-01
  1.037494347314E-01  8.633670088974E-02  7.118684714736E-02  5.810395961552E-02
  4.689750156821E-02  3.738332427511E-02  2.938459911934E-02  2.273265960240E-02
  1.726774286907E-02  1.283962165147E-02  9.308119025067E-03  6.543500071989E-03
  4.426736436316E-03  2.849641801154E-03  1.714878481374E-03  9.358375655670E-04
  4.363973069229E-04  1.505667014331E-04  2.202334566384E-05  3.556675676862E-06
  5.642949358168E-05  1.496722303324E-04  2.593256181690E-04  3.676483050213E-04
  4.623063960699E-04  5.355619249086E-04  5.834768214752E-04  6.051480536522E-04
  6.019882875660E-04  5.770646681721E-04  5.345062136012E-04  4.789879071670E-04
  4.152969380255E-04  3.479837761019E-04  2.810979695489E-04  2.180058299948E-04
  1.612846297243E-04  1.126856794990E-04  7.315678062383E-05  4.291313028482E-05
  2.154486583576E-05  8.149098385127E-06  1.474518278776E-06  6.743509023029E-08
  2.409392961317E-06  7.038200645495E-06  1.264623140134E-05  1.815205814549E-05
  2.274375832669E-05  2.589441066732E-05  2.735227689579E-05  2.710979493529E-05
  2.535670837522E-05  2.242335461682E-05  1.872030252790E-05  1.468018220127E-05
  1.070673773764E-05  7.134949468956E-06  4.204635688485E-06  2.048397008473E-06
  6.932578861447E-07  7.403237775576E-08  5.541729629354E-08  4.591853161804E-07
  1.092660265042E-06  1.774905810436E-06  2.357697368055E-06  2.739282277391E-06
  2.870039113804E-06  2.750279404357E-06  2.421449694677E-06  1.952762800853E-06
  1.425723086719E-06  9.190682482215E-07  4.963398745096E-07  1.976803251408E-07
  3.664131992248E-08  0.000000000000E+00  0.000000000000E+00  0.000000000000E+00
  0.000000000000E+00  0.000000000000E+00  0.000000000000E+00  0.000000000000E+00
  0.000000000000E+00  0.000000000000E+00  0.000000000000E+00  0.000000000000E+00
  0.000000000000E+00  0.000000000000E+00  0.000000000000E+00  0.000000000000E+00
  0.000000000000E+00  0.000000000000E+00  0.000000000000E+00  0.000000000000E+00
  0.000000000000E+00  0.000000000000E+00  0.000000000000E+00  0.000000000000E+00
  0.000000000000E+00  0.000000000000E+00  0.000000000000E+00  0.000000000000E+00
  0.000000000000E+00  0.000000000000E+00  0.000000000000E+00  0.000000000000E+00
  0.000000000000E+00  0.000000000000E+00  0.000000000000E+00  0.000000000000E+00
  0.000000000000E+00  0.000000000000E+00  0.000000000000E+00  0.000000000000E+00
  0.000000000000E+00  0.000000000000E+00  0.000000000000E+00
</data>
</radfunc>
</pseudocore-charge>
<semilocal-potentials set="scalar_relativistic">
<slps n="4" l="s" rc="1.71227334671" eref="-1.17489068458">
<radfunc>
<data npts="291">
  5.663439107024E+01  5.659606736965E+01  5.648174236477E+01  5.629179898871E+01
  5.601486330979E+01  5.566453749209E+01  5.522290972907E+01  5.472377557211E+01
  5.417075487498E+01  5.353655524877E+01  5.283516374196E+01  5.208850430454E+01
  5.120723491921E+01  5.031061387175E+01  4.943823418289E+01  4.846109960743E+01
  4.737104489040E+01  4.637091345812E+01  4.528319729195E+01  4.410465486034E+01
  4.283288303482E+01  4.174738368400E+01  4.060118450783E+01  3.939472017168E+01
  3.812905350008E+01  3.680592429770E+01  3.542778665875E+01  3.435997588088E+01
  3.326462354352E+01  3.214358342208E+01  3.099893588475E+01  2.983297780348E+01
  2.864820862564E+01  2.744731268007E+01  2.623313790459E+01  2.500867129452E+01
  2.377701148061E+01  2.254133894250E+01  2.171692231221E+01  2.089312075648E+01
  2.007089636658E+01  1.925120598641E+01  1.843499689382E+01  1.762320256840E+01
  1.681673858549E+01  1.601649867379E+01  1.522335097172E+01  1.443813451447E+01
  1.366165598025E+01  1.289468672055E+01  1.213796009517E+01  1.139216912860E+01
  1.065796450029E+01  9.935952877013E+00  9.226695591790E+00  8.530707669891E+00
  7.848457199022E+00  7.180365037664E+00  6.526804852790E+00  5.888103475827E+00
  5.264541563847E+00  4.656354551511E+00  4.063733878199E+00  3.486828474137E+00
  2.925746489005E+00  2.380557246479E+00  1.851293408382E+00  1.592634274609E+00
  1.337953332482E+00  1.087245432799E+00  8.405036083654E-01  5.977191619161E-01
  3.588817562335E-01  1.239795063459E-01 -1.070009263127E-01 -3.340742378992E-01
 -5.572563844414E-01 -7.765644825257E-01 -9.920167085275E-01 -1.203632196525E+00
 -1.411430935044E+00 -1.615433662794E+00 -1.815661763563E+00 -2.012137160457E+00
 -2.204882209687E+00 -2.393919594105E+00 -2.579272216741E+00 -2.760963094589E+00
 -2.939015252907E+00 -3.113451620363E+00 -3.284294925321E+00 -3.451567593648E+00
 -3.615291648421E+00 -3.775488611946E+00 -3.932179410542E+00 -4.085384282577E+00
 -4.235122690261E+00 -4.381413235755E+00 -4.524273582179E+00 -4.663720380127E+00
 -4.799769200344E+00 -4.932434473247E+00 -5.061729435977E+00 -5.187666087729E+00
 -5.310255154084E+00 -5.429506061120E+00 -5.545426920052E+00 -5.658024523163E+00
 -5.767304351772E+00 -5.873270596973E+00 -5.975926193823E+00 -6.075272869619E+00
 -6.171311206847E+00 -6.264040721278E+00 -6.353459955617E+00 -6.439566588954E+00
 -6.522357562147E+00 -6.601829219086E+00 -6.677977463588E+00 -6.750797931471E+00
 -6.820286177078E+00 -6.886437873276E+00 -6.949249023633E+00 -7.008716185160E+00
 -7.064836699635E+00 -7.117608931173E+00 -7.167032507292E+00 -7.213108560330E+00
 -7.255839965649E+00 -7.295231572653E+00 -7.331290424237E+00 -7.364025959921E+00
 -7.393450197558E+00 -7.419577888257E+00 -7.442426638894E+00 -7.462016996519E+00
 -7.478372488920E+00 -7.491519615788E+00 -7.501487785190E+00 -7.508309190635E+00
 -7.512018624695E+00 -7.512653226211E+00 -7.510252159364E+00 -7.504856224535E+00
 -7.496507402806E+00 -7.485248338279E+00 -7.471121765040E+00 -7.454169888607E+00
 -7.434433735109E+00 -7.411952485029E+00 -7.386762812339E+00 -7.358898253861E+00
 -7.328388637872E+00 -7.295259605031E+00 -7.259532258503E+00 -7.221222983555E+00