<?xml version="1.0" encoding="UTF-8" ?>
<psml version="1.1" energy_unit="hartree" length_unit="bohr"
 uuid="a3ffebd0-23d3-11e8-615b-6072eebfafa1"
 xmlns="http://esl.cecam.org/PSML/ns/1.1">
<provenance creator="ONCVPSP-3.3.0+psml-3.3.0-73 (scalar-relativistic)"
 date="2018-03-09">
<annotation action="semilocal-pseudopotential-generation"
 action-cont="projectors-generation" />
<input-file name="oncvpsp-input">
<![CDATA[# atsym z nc nv iexc psfile
Re 75 10 4 -001012 upf
# n l f
1 0 2.0
2 0 2.0
2 1 6.0
3 0 2.0
3 1 6.0
3 2 10.0
4 0 2.0
4 1 6.0
4 2 10.0
4 3 14.0
5 0 2.0
5 1 6.0
5 2 5.0
6 0 2.0
# lmax
3
# l rc ep ncon nbas qcut
0 1.6 0.0 4 8 7.4
1 1.6 0.0 4 8 8.0
2 1.6 0.0 4 9 7.4
3 2.0 0.15 4 8 5.0
# lloc lpopt rc5 dvloc0
4 5 1.6 0.0
# l nproj debl
0 2 1.0
1 2 2.0
2 2 1.8
3 2 3.0
# icmod fcfact rcfact
3 4.0 1.44
# epsh1 epsh2 depsh
-12.0 12.0 0.02
# rlmax drl
6.0 0.01
 0
]]>
</input-file>
</provenance>
<pseudo-atom-spec atomic-label="Re" atomic-number="75" z-pseudo="15"
 flavor="Hamann&apos;s oncvpsp" relativity="scalar" spin-dft="no"
 core-corrections="yes">
<annotation pseudo-energy="-80.0931911151" />
<exchange-correlation>
<annotation oncvpsp-xc-code="-1012" oncvpsp-xc-type="libxc-interface" />
<libxc-info number-of-functionals="2">
<functional name="Slater exchange (LDA)" type="exchange" id="1" />
<functional name="Perdew &amp; Wang (LDA)" type="correlation" id="12" />
</libxc-info>
</exchange-correlation>
<valence-configuration total-valence-charge="15">
<shell n="5" l="s" occupation="2" />
<shell n="5" l="p" occupation="6" />
<shell n="5" l="d" occupation="5" />
<shell n="6" l="s" occupation="2" />
</valence-configuration>
</pseudo-atom-spec>
<grid npts="457">
<annotation type="sampled from oncvpsp log grid"
 recipe="r(i:1..N) = r1*exp(a*(i-1)) + r=0; resampled"
 recipe-cont="r1: scale; a: step" scale="0.666666666667E-05"
 step="0.119285708653E-01" delta="0.500000000000E-02" rmax="44.3244860336" />
<grid-data>
  0.000000000000E+00  5.001418319608E-03  1.010981988336E-02  1.516634194138E-02
  2.019357182683E-02  2.533044859306E-02  3.065710074992E-02  3.579956451334E-02
  4.081909588935E-02  4.599053971972E-02  5.120273020085E-02  5.632967153367E-02
  6.196997469948E-02  6.736664302225E-02  7.323328134463E-02  7.866681531939E-02
  8.450348965482E-02  8.969685306186E-02  9.520938699770E-02  1.010607068480E-01
  1.072716335089E-01  1.125140982946E-01  1.180127672242E-01  1.237801612332E-01
  1.298294131669E-01  1.361742976849E-01  1.428292626275E-01  1.480330651325E-01
  1.534264615625E-01  1.590163595311E-01  1.648099183218E-01  1.708145580576E-01
  1.770379692044E-01  1.834881224200E-01  1.901732787635E-01  1.971020002748E-01
  2.042831609411E-01  2.117259580618E-01  2.168378695933E-01  2.220732031167E-01
  2.274349385328E-01  2.329261276887E-01  2.385498961156E-01  2.443094448074E-01
  2.502080520429E-01  2.562490752514E-01  2.624359529243E-01  2.687722065717E-01
  2.752614427271E-01  2.819073550003E-01  2.887137261795E-01  2.956844303843E-01
  3.028234352715E-01  3.101348042927E-01  3.176226990076E-01  3.252913814524E-01
  3.331452165662E-01  3.411886746750E-01  3.494263340363E-01  3.578628834453E-01
  3.665031249032E-01  3.753519763509E-01  3.844144744679E-01  3.936957775394E-01
  4.032011683924E-01  4.129360574020E-01  4.229059855719E-01  4.279808573988E-01
  4.331166276876E-01  4.383140272198E-01  4.435737955465E-01  4.488966810930E-01
  4.542834412662E-01  4.597348425613E-01  4.652516606721E-01  4.708346806001E-01
  4.764846967673E-01  4.822025131286E-01  4.879889432861E-01  4.938448106055E-01
  4.997709483328E-01  5.057681997128E-01  5.118374181093E-01  5.179794671267E-01
  5.241952207322E-01  5.304855633810E-01  5.368513901415E-01  5.432936068232E-01
  5.498131301051E-01  5.564108876664E-01  5.630878183184E-01  5.698448721382E-01
  5.766830106038E-01  5.836032067311E-01  5.906064452119E-01  5.976937225544E-01
  6.048660472251E-01  6.121244397918E-01  6.194699330693E-01  6.269035722661E-01
  6.344264151333E-01  6.420395321149E-01  6.497440065003E-01  6.575409345783E-01
  6.654314257932E-01  6.734166029027E-01  6.814976021376E-01  6.896755733632E-01
  6.979516802436E-01  7.063271004065E-01  7.148030256114E-01  7.233806619187E-01
  7.320612298617E-01  7.408459646201E-01  7.497361161955E-01  7.587329495899E-01
  7.678377449849E-01  7.770517979248E-01  7.863764194999E-01  7.958129365339E-01
  8.053626917723E-01  8.150270440735E-01  8.248073686024E-01  8.347050570256E-01
  8.447215177099E-01  8.548581759225E-01  8.651164740335E-01  8.754978717219E-01
  8.860038461826E-01  8.966358923368E-01  9.073955230448E-01  9.182842693214E-01
  9.293036805532E-01  9.404553247199E-01  9.517407886165E-01  9.631616780799E-01
  9.747196182169E-01  9.864162536355E-01  9.982532486791E-01  1.010232287663E+00
  1.022355075115E+00  1.034623336017E+00  1.047038816049E+00  1.059603281841E+00
  1.072318521223E+00  1.085186343478E+00  1.098208579600E+00  1.111387082555E+00
  1.124723727546E+00  1.138220412276E+00  1.151879057224E+00  1.165701605910E+00
  1.179690025181E+00  1.193846305483E+00  1.208172461149E+00  1.222670530683E+00
  1.237342577051E+00  1.252190687976E+00  1.267216976231E+00  1.282423579946E+00
  1.297812662906E+00  1.313386414861E+00  1.329147051839E+00  1.345096816461E+00
  1.361237978258E+00  1.377572833998E+00  1.394103708005E+00  1.410832952502E+00
  1.427762947932E+00  1.444896103307E+00  1.462234856546E+00  1.479781674825E+00
  1.497539054923E+00  1.515509523582E+00  1.533695637865E+00  1.552099985519E+00
  1.570725185346E+00  1.589573887570E+00  1.608648774221E+00  1.627952559511E+00
  1.647487990225E+00  1.667257846108E+00  1.687264940261E+00  1.707512119544E+00
  1.728002264979E+00  1.748738292159E+00  1.769723151665E+00  1.790959829485E+00
  1.812451347438E+00  1.834200763608E+00  1.856211172771E+00  1.878485706844E+00
  1.901027535326E+00  1.923839865750E+00  1.946925944139E+00  1.970289055469E+00
  1.993932524135E+00  2.017859714424E+00  2.042074030997E+00  2.066578919369E+00
  2.091377866402E+00  2.116474400799E+00  2.141872093608E+00  2.167574558731E+00
  2.193585453436E+00  2.219908478877E+00  2.246547380624E+00  2.273505949191E+00
  2.300788020582E+00  2.328397476829E+00  2.356338246551E+00  2.384614305509E+00
  2.413229677175E+00  2.442188433301E+00  2.471494694501E+00  2.501152630835E+00
  2.531166462405E+00  2.561540459954E+00  2.592278945473E+00  2.623386292819E+00
  2.654866928333E+00  2.686725331473E+00  2.718966035451E+00  2.751593627876E+00
  2.784612751411E+00  2.818028104427E+00  2.851844441681E+00  2.886066574981E+00
  2.920699373881E+00  2.955747766367E+00  2.991216739564E+00  3.027111340438E+00
  3.063436676524E+00  3.100197916642E+00  3.137400291642E+00  3.175049095141E+00
  3.213149684283E+00  3.251707480494E+00  3.290727970260E+00  3.330216705903E+00
  3.370179306374E+00  3.410621458051E+00  3.451548915547E+00  3.492967502534E+00
  3.534883112564E+00  3.577301709915E+00  3.620229330434E+00  3.663672082399E+00
  3.707636147388E+00  3.752127781157E+00  3.797153314531E+00  3.842719154305E+00
  3.888831784157E+00  3.935497765566E+00  3.982723738753E+00  4.030516423618E+00
  4.078882620702E+00  4.127829212150E+00  4.177363162696E+00  4.227491520648E+00
  4.278221418896E+00  4.329560075923E+00  4.381514796834E+00  4.434092974396E+00
  4.487302090089E+00  4.541149715170E+00  4.595643511752E+00  4.650791233893E+00
  4.706600728699E+00  4.763079937444E+00  4.820236896693E+00  4.878079739454E+00
  4.936616696327E+00  4.995856096683E+00  5.055806369843E+00  5.116476046281E+00
  5.177873758837E+00  5.240008243943E+00  5.302888342870E+00  5.366523002984E+00
  5.430921279020E+00  5.496092334368E+00  5.562045442381E+00  5.628789987689E+00
  5.696335467542E+00  5.764691493152E+00  5.833867791070E+00  5.903874204563E+00
  5.974720695018E+00  6.046417343358E+00  6.118974351478E+00  6.192402043696E+00
  6.266710868220E+00  6.341911398639E+00  6.418014335423E+00  6.495030507448E+00
  6.572970873537E+00  6.651846524019E+00  6.731668682308E+00  6.812448706495E+00
  6.894198090973E+00  6.976928468065E+00  7.060651609682E+00  7.145379428998E+00
  7.231123982146E+00  7.317897469932E+00  7.405712239571E+00  7.494580786446E+00
  7.584515755883E+00  7.675529944954E+00  7.767636304293E+00  7.860847939945E+00
  7.955178115224E+00  8.050640252607E+00  8.147247935638E+00  8.245014910866E+00
  8.343955089796E+00  8.444082550873E+00  8.545411541484E+00  8.647956479982E+00
  8.751731957742E+00  8.856752741234E+00  8.963033774129E+00  9.070590179419E+00
  9.179437261572E+00  9.289590508711E+00  9.401065594815E+00  9.513878381953E+00
  9.628044922536E+00  9.743581461607E+00  9.860504439146E+00  9.978830492416E+00
  1.009857645832E+01  1.021975937582E+01  1.034239648833E+01  1.046650524619E+01
  1.059210330915E+01  1.071920854886E+01  1.084783905145E+01  1.097801312006E+01
  1.110974927750E+01  1.124306626883E+01  1.137798306406E+01  1.151451886083E+01
  1.165269308716E+01  1.179252540420E+01  1.193403570905E+01  1.207724413756E+01
  1.222217106721E+01  1.236883712002E+01  1.251726316546E+01  1.266747032345E+01
  1.281947996733E+01  1.297331372694E+01  1.312899349166E+01  1.328654141356E+01
  1.344597991052E+01  1.360733166945E+01  1.377061964948E+01  1.393586708527E+01
  1.410309749030E+01  1.427233466018E+01  1.444360267610E+01  1.461692590822E+01
  1.479232901912E+01  1.496983696734E+01  1.514947501095E+01  1.533126871108E+01
  1.551524393562E+01  1.570142686284E+01  1.588984398520E+01  1.608052211302E+01
  1.627348837838E+01  1.646877023892E+01  1.666639548179E+01  1.686639222757E+01
  1.706878893430E+01  1.727361440151E+01  1.748089777433E+01  1.769066854762E+01
  1.790295657019E+01  1.811779204903E+01  1.833520555362E+01  1.855522802026E+01
  1.877789075651E+01  1.900322544559E+01  1.923126415093E+01  1.946203932074E+01
  1.969558379259E+01  1.993193079810E+01  2.017111396768E+01  2.041316733529E+01
  2.065812534332E+01  2.090602284744E+01  2.115689512161E+01  2.141077786307E+01
  2.166770719742E+01  2.192771968379E+01  2.219085232000E+01  2.245714254784E+01
  2.272662825841E+01  2.299934779751E+01  2.327533997108E+01  2.355464405073E+01
  2.383729977934E+01  2.412334737670E+01  2.441282754522E+01  2.470578147576E+01
  2.500225085347E+01  2.530227786371E+01  2.560590519807E+01  2.591317606045E+01
  2.622413417318E+01  2.653882378325E+01  2.685728966865E+01  2.717957714468E+01
  2.750573207041E+01  2.783580085526E+01  2.816983046552E+01  2.850786843111E+01
  2.884996285228E+01  2.919616240651E+01  2.954651635539E+01  2.990107455165E+01
  3.025988744627E+01  3.062300609563E+01  3.099048216877E+01  3.136236795480E+01
  3.173871637026E+01  3.211958096670E+01  3.250501593830E+01  3.289507612956E+01
  3.328981704311E+01  3.368929484763E+01  3.409356638580E+01  3.450268918243E+01
  3.491672145262E+01  3.533572211005E+01  3.575975077537E+01  3.618886778468E+01
  3.662313419809E+01  3.706261180847E+01  3.750736315017E+01  3.795745150798E+01
  3.841294092607E+01  3.887389621718E+01  3.934038297179E+01  3.981246756745E+01
  4.029021717826E+01  4.077369978440E+01  4.126298418181E+01  4.175813999199E+01
  4.225923767190E+01  4.276634852396E+01  4.327954470625E+01  4.379889924272E+01
  4.432448603364E+01
</grid-data>
</grid>
<valence-charge total-charge="15" is-unscreening-charge="yes"
 rescaled-to-z-pseudo="no">
<radfunc>
<data npts="457">
  2.089671078493E+00  2.090424411160E+00  2.092749168747E+00  2.096598123568E+00
  2.101951166505E+00  2.108992821762E+00  2.117972216826E+00  2.128261139848E+00
  2.139838521778E+00  2.153351056440E+00  2.168596795815E+00  2.185185634539E+00
  2.205258853583E+00  2.226252018930E+00  2.251054181367E+00  2.275864153425E+00
  2.304482745275E+00  2.331658622727E+00  2.362265674194E+00  2.396734882420E+00
  2.435550601047E+00  2.470096089929E+00  2.508079206219E+00  2.549838676164E+00
  2.595745674400E+00  2.646206664269E+00  2.701666405495E+00  2.746832479573E+00
  2.795304409429E+00  2.847318623420E+00  2.903127300522E+00  2.962999167947E+00
  3.027220280454E+00  3.096094763958E+00  3.169945501582E+00  3.249114734879E+00
  3.333964546465E+00  3.424877182596E+00  3.489051787018E+00  3.556223712565E+00
  3.626521130434E+00  3.700076042062E+00  3.777024145854E+00  3.857504656619E+00
  3.941660070598E+00  4.029635868123E+00  4.121580145078E+00  4.217643163362E+00
  4.317976809522E+00  4.422733949666E+00  4.532067667602E+00  4.646130371998E+00
  4.765072757146E+00  4.889042600728E+00  5.018183380783E+00  5.152632692980E+00
  5.292520448289E+00  5.437966830275E+00  5.589079990656E+00  5.745953461392E+00
  5.908663261730E+00  6.077264679161E+00  6.251788704542E+00  6.432238103636E+00
  6.618583110328E+00  6.810756730894E+00  7.008649654207E+00  7.109693782324E+00
  7.212104769769E+00  7.315854547041E+00  7.420911304329E+00  7.527239289065E+00
  7.634798598719E+00  7.743544969246E+00  7.853429559678E+00  7.964398733445E+00
  8.076393837071E+00  8.189350976985E+00  8.303200795286E+00  8.417868245411E+00
  8.533272368720E+00  8.649326073187E+00  8.765935915441E+00  8.883001887562E+00
  9.000417210155E+00  9.118068133342E+00  9.235833747477E+00  9.353585805490E+00
  9.471188558944E+00  9.588498609999E+00  9.705364781643E+00  9.821628008687E+00
  9.937121252133E+00  1.005166943971E+01  1.016508943543E+01  1.027719004125E+01
  1.038777203387E+01  1.049662823993E+01  1.060354365294E+01  1.070829559520E+01
  1.081065392824E+01  1.091038131509E+01  1.100723353774E+01  1.110095987324E+01
  1.119130353165E+01  1.127800215887E+01  1.136078840739E+01  1.143939057766E+01
  1.151353333242E+01  1.158293848614E+01  1.164732587130E+01  1.170641428246E+01
  1.175992249912E+01  1.180757038703E+01  1.184908007755E+01  1.188417722341E+01
  1.191259232868E+01  1.193406214961E+01  1.194833116209E+01  1.195515309047E+01
  1.195429249116E+01  1.194552638328E+01  1.192864591753E+01  1.190345807298E+01
  1.186978737025E+01  1.182747758826E+01  1.177639347038E+01  1.171642240482E+01
  1.164747606254E+01  1.156949197526E+01  1.148243503522E+01  1.138629889723E+01
  1.128110726361E+01  1.116691503175E+01  1.104380928445E+01  1.091191010320E+01
  1.077137118537E+01  1.062238024717E+01  1.046515919572E+01  1.029996405523E+01
  1.012708463455E+01  9.946843925793E+00  9.759597226800E+00  9.565730983268E+00
  9.365661350034E+00  9.159832474667E+00  8.948714510437E+00  8.732801369670E+00
  8.512608232420E+00  8.288668829165E+00  8.061532519794E+00  7.831761194332E+00
  7.599926023633E+00  7.366604090515E+00  7.132374933444E+00  6.897817035904E+00
  6.663504294939E+00  6.430002502055E+00  6.197865868810E+00  5.967633627989E+00
  5.739826739479E+00  5.514944727876E+00  5.293462676709E+00  5.075828402042E+00
  4.862459826395E+00  4.653742572436E+00  4.450027794936E+00  4.251630269122E+00
  4.058826753690E+00  3.871854647468E+00  3.690910959704E+00  3.516151615088E+00
  3.347691115574E+00  3.185602581430E+00  3.029918193508E+00  2.880630056919E+00
  2.737691503003E+00  2.601018841341E+00  2.470493566496E+00  2.345966367777E+00
  2.227266864711E+00  2.114216376692E+00  2.006629941074E+00  1.904317563984E+00
  1.807085797455E+00  1.714739049424E+00  1.627080803089E+00  1.543914726523E+00
  1.465045675892E+00  1.390280595339E+00  1.319429316939E+00  1.252305264635E+00
  1.188726066421E+00  1.128514079369E+00  1.071496832333E+00  1.017507391342E+00
  9.663846528040E-01  9.179735697115E-01  8.721253160418E-01  8.286973945150E-01
  7.875536927894E-01  7.485644930663E-01  7.116064399259E-01  6.765624710504E-01
  6.433217153136E-01  6.117793623786E-01  5.818365080435E-01  5.533999788958E-01
  5.263821399314E-01  5.007006884064E-01  4.762784369637E-01  4.530430888278E-01
  4.309270076157E-01  4.098669840706E-01  3.898040017919E-01  3.706830038087E-01
  3.524526616308E-01  3.350651482006E-01  3.184759159799E-01  3.026434812188E-01
  2.875292152843E-01  2.730971437679E-01  2.593137539432E-01  2.461478110113E-01
  2.335701834480E-01  2.215536776567E-01  2.100728820310E-01  1.991040204416E-01
  1.886248150843E-01  1.786143585569E-01  1.690529949740E-01  1.599222098778E-01
  1.512045286608E-01  1.428834231810E-01  1.349432262233E-01  1.273690534382E-01
  1.201467323747E-01  1.132627382104E-01  1.067041357813E-01  1.004585275066E-01
  9.451400680976E-02  8.885911663920E-02  8.348281270309E-02  7.837443103965E-02
  7.352365955883E-02  6.892051320384E-02  6.455531239659E-02  6.041866444667E-02
  5.650144762055E-02  5.279479758461E-02  4.929009595329E-02  4.597896069169E-02
  4.285323813469E-02  3.990499641411E-02  3.712652008577E-02  3.451030577710E-02
  3.204905868684E-02  2.973568978436E-02  2.756331357087E-02  2.552524627857E-02
  2.361500439709E-02  2.182630342879E-02  2.015305678646E-02  1.858937475766E-02
  1.712956347037E-02  1.576812380387E-02  1.449975019770E-02  1.331932931973E-02
  1.222193856135E-02  1.120284433520E-02  1.025750015647E-02  9.381544494694E-03
  8.570798387864E-03  7.821262815285E-03  7.129115829454E-03  6.490709450929E-03
  5.902566333147E-03  5.361376206890E-03  4.863992116351E-03  4.407426460733E-03
  3.988846856863E-03  3.605571839627E-03  3.255066418016E-03  2.934937505289E-03
  2.642929242266E-03  2.376918232993E-03  2.134908712088E-03  1.915027662938E-03
  1.715519905584E-03  1.534743172700E-03  1.371163191461E-03  1.223348788369E-03
  1.089967033297E-03  9.697784381094E-04  8.616322242218E-04  7.644616724216E-04
  6.772795672005E-04  5.991737467155E-04  5.293027683466E-04  4.668916987150E-04
  4.112280357876E-04  3.616577696476E-04  3.175815873573E-04  2.784512262381E-04
  2.437659788515E-04  2.130693519634E-04  1.859458808077E-04  1.620180990635E-04
  1.409436641125E-04  1.224126363585E-04  1.061449106700E-04  9.188779735218E-05
  7.941374946563E-05  6.851823278740E-05  5.901773425427E-05  5.074790433779E-05
  4.356182847266E-05  3.732842239430E-05  3.193094603293E-05  2.726563045908E-05
  2.324041227450E-05  1.977376978984E-05  1.679365532245E-05  1.423651797990E-05
  1.204641136387E-05  1.017418073034E-05  8.576724271811E-06  7.216323341665E-06
  6.060036616188E-06  5.079153381747E-06  4.248701340920E-06  3.547004547688E-06
  2.955287305746E-06  2.457320092495E-06  2.039103801963E-06  1.688588830393E-06
  1.395425756558E-06  1.150744593275E-06  9.469598054770E-07  7.775985023667E-07
  6.371494155270E-07  5.209304704947E-07  4.249729456497E-07  3.459203887796E-07
  2.809406280835E-07  2.276493704908E-07  1.840440259736E-07  1.484465320990E-07
  1.194540785842E-07  9.589674734392E-08  7.680118979459E-08  6.135956038335E-08
  4.890301388027E-08  3.887915436587E-08  3.083289654929E-08  2.439026555929E-08
  1.924472015989E-08  1.514563695239E-08  1.188864002188E-08  9.307502145081E-09
  7.267380553910E-09  5.659182781807E-09  4.394886721965E-09  3.403664087669E-09
  2.628678348837E-09  2.024447264273E-09  1.554676648450E-09  1.190486291842E-09
  9.089612570818E-10  6.919723377299E-10  5.252185074766E-10  3.974518990054E-10
  2.998524068689E-10  2.255245622596E-10  1.690940166132E-10  1.263849167268E-10
  9.416276305115E-11  6.993010830463E-11  5.176475689242E-11  3.819203742014E-11
  2.808430190579E-11  2.058210869359E-11  1.503261662491E-11  1.094159421467E-11
  7.936162150172E-12  5.735968095807E-12  4.130962939147E-12  2.964326898365E-12
  2.119398766199E-12  1.509705690711E-12  1.071385655557E-12  7.574496181207E-13
  5.334528282965E-13  3.742415083897E-13  2.615171338987E-13  1.820193932923E-13
  9.326061751987E-14  6.418752556963E-14  4.399256076660E-14  3.002356930942E-14
  2.040223797900E-14  1.380394978764E-14  9.298574968699E-15  6.235826144205E-15
  4.163063217115E-15  2.766622882482E-15  1.830126600731E-15  1.204987330362E-15
  7.896409834375E-16  5.149891886991E-16  3.342434091367E-16  2.158731738988E-16
  1.387330882335E-16  8.871174900421E-17  5.643854187537E-17  3.572214353759E-17
  2.249259312234E-17  1.408817426916E-17  8.777192616909E-18  5.438942793508E-18
  3.351993644782E-18  2.054439052375E-18  1.252148734334E-18  7.588606114144E-19
  4.572798252338E-19  2.739593664695E-19  1.631714347028E-19  9.661073743613E-20
  5.685897127318E-20  3.326087040418E-20  1.933737549583E-20  1.117271375848E-20
  6.414821270416E-21  3.659673370421E-21  2.074429594899E-21  1.168207545303E-21
  6.535399769386E-22  3.631789256607E-22  2.004612782538E-22  1.098920569302E-22
  5.982629832170E-23  3.234233397412E-23  1.736071680883E-23  0.000000000000E+00
  0.000000000000E+00  0.000000000000E+00  0.000000000000E+00  0.000000000000E+00
  0.000000000000E+00  0.000000000000E+00  0.000000000000E+00  0.000000000000E+00
  0.000000000000E+00  0.000000000000E+00  0.000000000000E+00  0.000000000000E+00
  0.000000000000E+00
</data>
</radfunc>
</valence-charge>
<pseudocore-charge matching-radius="0.907395523045"
 number-of-continuous-derivatives="4">
<annotation model-charge-form="Teter function with specified parameters" />
<radfunc>
<data npts="290">
  4.806504901936E+01  4.806282415943E+01  4.805595880549E+01  4.804459395462E+01
  4.802879145966E+01  4.800801026178E+01  4.798152060186E+01  4.795118172322E+01
  4.791706132368E+01  4.787726138376E+01  4.783238689635E+01  4.778359558141E+01
  4.772460644636E+01  4.766297257979E+01  4.759023258348E+01  4.751755207087E+01
  4.743381558336E+01  4.735439985505E+01  4.726507197274E+01  4.716461602293E+01
  4.705167265452E+01  4.695131256817E+01  4.684113496164E+01  4.672020491821E+01
  4.658750383476E+01  4.644192306737E+01  4.628225734604E+01  4.615248164564E+01
  4.601345683172E+01  4.586455392100E+01  4.570510579936E+01  4.553440564204E+01
  4.535170539364E+01  4.515621433647E+01  4.494709778027E+01  4.472347591221E+01
  4.448442285223E+01  4.422896596585E+01  4.404904649522E+01  4.386107038329E+01
  4.366471457113E+01  4.345964683354E+01  4.324552592683E+01  4.302200179349E+01
  4.278871583036E+01  4.254530122697E+01  4.229138338148E+01  4.202658040204E+01
  4.175050370190E+01  4.146275869711E+01  4.116294561620E+01  4.085066043165E+01
  4.052549592350E+01  4.018704288584E+01  3.983489148728E+01  3.946863279698E+01
  3.908786048788E+01  3.869217272907E+01  3.828117427916E+01  3.785447879264E+01
  3.741171135051E+01  3.695251122654E+01  3.647653489928E+01  3.598345931924E+01
  3.547298543930E+01  3.494484201458E+01  3.439878967616E+01  3.411898264222E+01
  3.383462528007E+01  3.354569861533E+01  3.325218653038E+01  3.295407592335E+01
  3.265135687115E+01  3.234402279634E+01  3.203207063775E+01  3.171550102448E+01
  3.139431845344E+01  3.106853146988E+01  3.073815285082E+01  3.040319979109E+01
  3.006369409165E+01  2.971966234979E+01  2.937113615101E+01  2.901815226189E+01
  2.866075282376E+01  2.829898554644E+01  2.793290390177E+01  2.756256731605E+01
  2.718804136101E+01  2.680939794253E+01  2.642671548633E+01  2.604007911999E+01
  2.564958085038E+01  2.525531973567E+01  2.485740205093E+01  2.445594144649E+01
  2.405105909784E+01  2.364288384608E+01  2.323155232789E+01  2.281720909361E+01
  2.240000671235E+01  2.198010586289E+01  2.155767540885E+01  2.113289245700E+01
  2.070594239704E+01  2.027701892167E+01  1.984632402531E+01  1.941406797995E+01
  1.898046928675E+01  1.854575460175E+01  1.811015863414E+01  1.767392401566E+01
  1.723730113952E+01  1.680054796736E+01  1.636392980289E+01  1.592771903058E+01
  1.549219481839E+01  1.505764278288E+01  1.462435461587E+01  1.419262767137E+01
  1.376276451191E+01  1.333507241350E+01  1.290986282849E+01  1.248745080608E+01
  1.206815436996E+01  1.165229385337E+01  1.124019119155E+01  1.083216917231E+01
  1.042855064530E+01  1.002965769135E+01  9.635810753029E+00  9.247327728563E+00
  8.864523030974E+00  8.487706615264E+00  8.117182976500E+00  7.753250122269E+00
  7.396198523331E+00  7.046310046799E+00  6.703856876563E+00  6.369100426199E+00
  6.042290249993E+00  5.723662958188E+00  5.413441142986E+00  5.111832322229E+00
  4.819027908090E+00  4.535202208428E+00  4.260511468796E+00  3.995092963340E+00
  3.739064143017E+00  3.492521849739E+00  3.255541605068E+00  3.028176982115E+00
  2.810459069172E+00  2.602396033408E+00  2.403972792647E+00  2.215150802853E+00
  2.035867968385E+00  1.866038681444E+00  1.705553996337E+00  1.554281943302E+00
  1.412067985549E+00  1.278735622064E+00  1.154087137392E+00  1.037904498225E+00
  9.299503951290E-01  8.299694261074E-01  7.376894170464E-01  6.528228723254E-01
  5.750685470997E-01  5.041131309632E-01  4.396330309121E-01  3.812962397881E-01
  3.287642747099E-01  2.816941684427E-01  2.397404952419E-01  2.025574114762E-01
  1.698006903241E-01  1.411297290827E-01  1.162095071651E-01  9.471247272134E-02
  7.632033602985E-02  6.072574839283E-02  4.763384624695E-02  3.676364158182E-02
  2.784924154204E-02  2.064088226766E-02  1.490576458337E-02  1.042868204923E-02
  7.012435094865E-03  4.478028421379E-03  2.664652508240E-03  1.429453831018E-03
  6.471021970604E-04  2.091673483244E-04  2.332056673619E-05  1.238034723774E-05
  1.132241768054E-04  2.755909768921E-04  4.608007415998E-04  6.404192547141E-04
  7.948964303496E-04  9.122067474797E-04  9.865194128475E-04  1.016924289125E-03
  1.006237291908E-03  9.599059445336E-04  8.850321663109E-04  7.895252672114E-04
  6.813936646868E-04  5.681791810341E-04  4.565330930121E-04  3.519285683203E-04
  2.584999162067E-04  1.789953743883E-04  1.148271076672E-04  6.619983560336E-05
  3.229813409360E-05  1.151202443803E-05  1.680982820271E-06  3.379329811391E-07
  4.937035306437E-06  1.305201963197E-05  2.253524882245E-05  3.163143582476E-05
  3.904373888739E-05  4.395359299334E-05  4.599887558861E-05  4.521765308773E-05
  4.196665463972E-05  3.682466898386E-05  3.049122060187E-05  2.369018320519E-05
  1.708653033612E-05  1.122236436105E-05  6.475915171004E-06  3.044598565415E-06
  9.507214700736E-07  6.625299101744E-08  1.514459318204E-07  9.011342116037E-07
  1.992315845077E-06  3.127145621190E-06  4.066612333981E-06  4.651797417308E-06
  4.811487931657E-06  4.556803507058E-06  3.965154365584E-06  3.157070942596E-06
  2.270092026423E-06  1.433906898352E-06  7.503479407011E-07  2.807411572334E-07
  4.173094806610E-08  0.000000000000E+00  0.000000000000E+00  0.000000000000E+00
  0.000000000000E+00  0.000000000000E+00  0.000000000000E+00  0.000000000000E+00
  0.000000000000E+00  0.000000000000E+00  0.000000000000E+00  0.000000000000E+00
  0.000000000000E+00  0.000000000000E+00  0.000000000000E+00  0.000000000000E+00
  0.000000000000E+00  0.000000000000E+00  0.000000000000E+00  0.000000000000E+00
  0.000000000000E+00  0.000000000000E+00  0.000000000000E+00  0.000000000000E+00
  0.000000000000E+00  0.000000000000E+00  0.000000000000E+00  0.000000000000E+00
  0.000000000000E+00  0.000000000000E+00  0.000000000000E+00  0.000000000000E+00
  0.000000000000E+00  0.000000000000E+00  0.000000000000E+00  0.000000000000E+00
  0.000000000000E+00  0.000000000000E+00
</data>
</radfunc>
</pseudocore-charge>
<semilocal-potentials set="scalar_relativistic">
<slps n="5" l="s" rc="1.60864877422" eref="-3.14236801139">
<radfunc>
<data npts="290">
 -7.181855587574E+00 -7.183122087348E+00 -7.187029092511E+00 -7.193493136249E+00
 -7.202473792004E+00 -7.214270772242E+00 -7.229286762476E+00 -7.246455127153E+00
 -7.265725733615E+00 -7.288153796750E+00 -7.313376778327E+00 -7.340723796559E+00
 -7.373679169943E+00 -7.407987035168E+00 -7.448313470939E+00 -7.488431057970E+00
 -7.534434605361E+00 -7.577851433236E+00 -7.626441161478E+00 -7.680774902323E+00
 -7.741475075630E+00 -7.795070999119E+00 -7.853542882258E+00 -7.917282804252E+00
 -7.986704051706E+00 -8.062240096321E+00 -8.144342995408E+00 -8.210510883916E+00
 -8.280838447256E+00 -8.355531608883E+00 -8.434798473141E+00 -8.518848023937E+00
 -8.607888606657E+00 -8.702126176468E+00 -8.801762297146E+00 -8.906991876164E+00
 -9.018000623985E+00 -9.134962228475E+00 -9.216322793926E+00 -9.300442468025E+00
 -9.387359659702E+00 -9.477108134550E+00 -9.569716485980E+00 -9.665207583637E+00
 -9.763598000455E+00 -9.864897420080E+00 -9.969108026702E+00 -1.007622387964E+01
 -1.018623027541E+01 -1.029910310029E+01 -1.041480817671E+01 -1.053330060721E+01
 -1.065452411982E+01 -1.077841041910E+01 -1.090487854736E+01 -1.103383426056E+01
 -1.116516942379E+01 -1.129876143111E+01 -1.143447265475E+01 -1.157214992857E+01
 -1.171162407065E+01 -1.185270944972E+01 -1.199520360018E+01 -1.213888688991E+01
 -1.228352224529E+01 -1.242885493720E+01 -1.257461243182E+01 -1.264756042345E+01
 -1.272050430956E+01 -1.279340499149E+01 -1.286622225554E+01 -1.293891477686E+01
 -1.301144012446E+01 -1.308375476752E+01 -1.315581408300E+01 -1.322757236451E+01
 -1.329898283253E+01 -1.336999764597E+01 -1.344056791510E+01 -1.351064371589E+01
 -1.358017410579E+01 -1.364910714089E+01 -1.371738989470E+01 -1.378496847832E+01
 -1.385178806223E+01 -1.391779289968E+01 -1.398292635164E+01 -1.404713091351E+01
 -1.411034824342E+01 -1.417251919242E+01 -1.423358383636E+01 -1.429348150962E+01
 -1.435215084080E+01 -1.440952979026E+01 -1.446555568966E+01 -1.452016528360E+01
 -1.457329477317E+01 -1.462487986175E+01 -1.467485580286E+01 -1.472315745022E+01
 -1.476971930995E+01 -1.481447559498E+01 -1.485736028171E+01 -1.489830716873E+01
 -1.493724993783E+01 -1.497412221696E+01 -1.500885764542E+01 -1.504138994077E+01
 -1.507165296776E+01 -1.509958080881E+01 -1.512510783609E+01 -1.514816878479E+01
 -1.516869882753E+01 -1.518663364943E+01 -1.520190952369E+01 -1.521446338714E+01
 -1.522423291544E+01 -1.523115659745E+01 -1.523517380824E+01 -1.523622488022E+01
 -1.523425117171E+01 -1.522919513248E+01 -1.522100036543E+01 -1.520961168396E+01
 -1.519497516405E+01 -1.517703819075E+01 -1.515574949815E+01 -1.513105920245E+01
 -1.510291882760E+01 -1.507128132310E+01 -1.503610107393E+01 -1.499733390246E+01
 -1.495493706282E+01 -1.490886922836E+01 -1.485909047324E+01 -1.480556224989E+01
 -1.474824736445E+01 -1.468710995329E+01 -1.462211546437E+01 -1.455323064835E+01
 -1.448042356531E+01 -1.440366361464E+01 -1.432292159659E+01 -1.423816981628E+01
 -1.414938224236E+01 -1.405653473472E+01 -1.395960535821E+01 -1.385857480114E+01
 -1.375342692076E+01 -1.364414943986E+01 -1.353073482214E+01 -1.341318135643E+01