<?xml version="1.0" encoding="UTF-8" ?>
<psml version="1.1" energy_unit="hartree" length_unit="bohr"
 uuid="1cb2c670-23d3-11e8-5131-0eb777fdfc5a"
 xmlns="http://esl.cecam.org/PSML/ns/1.1">
<provenance creator="ONCVPSP-3.3.0+psml-3.3.0-73 (scalar-relativistic)"
 date="2018-03-09">
<annotation action="semilocal-pseudopotential-generation"
 action-cont="projectors-generation" />
<input-file name="oncvpsp-input">
<![CDATA[# atsym z nc nv iexc psfile
Rh 45 6 4 -001012 upf
# n l f
1 0 2.0
2 0 2.0
2 1 6.0
3 0 2.0
3 1 6.0
3 2 10.0
4 0 2.0
4 1 6.0
4 2 8.0
5 0 1.0
# lmax
2
# l rc ep ncon nbas qcut
0 1.4 0.0 4 7 9.4
1 1.4 0.0 4 7 9.4
2 1.35 0.0 4 7 9.4
# lloc lpopt rc5 dvloc0
4 5 1.3 0.0
# l nproj debl
0 2 1.0
1 2 1.0
2 2 1.0
# icmod fcfact rcfact
3 7.0 1.23
# epsh1 epsh2 depsh
-12.0 12.0 0.02
# rlmax drl
6.0 0.01
 0
]]>
</input-file>
</provenance>
<pseudo-atom-spec atomic-label="Rh" atomic-number="45" z-pseudo="17"
 flavor="Hamann&apos;s oncvpsp" relativity="scalar" spin-dft="no"
 core-corrections="yes">
<annotation pseudo-energy="-110.824199153" />
<exchange-correlation>
<annotation oncvpsp-xc-code="-1012" oncvpsp-xc-type="libxc-interface" />
<libxc-info number-of-functionals="2">
<functional name="Slater exchange (LDA)" type="exchange" id="1" />
<functional name="Perdew &amp; Wang (LDA)" type="correlation" id="12" />
</libxc-info>
</exchange-correlation>
<valence-configuration total-valence-charge="17">
<shell n="4" l="s" occupation="2" />
<shell n="4" l="p" occupation="6" />
<shell n="4" l="d" occupation="8" />
<shell n="5" l="s" occupation="1" />
</valence-configuration>
</pseudo-atom-spec>
<grid npts="457">
<annotation type="sampled from oncvpsp log grid"
 recipe="r(i:1..N) = r1*exp(a*(i-1)) + r=0; resampled"
 recipe-cont="r1: scale; a: step" scale="0.111111111111E-04"
 step="0.119285708653E-01" delta="0.500000000000E-02" rmax="44.2313729721" />
<grid-data>
  0.000000000000E+00  5.050802712143E-03  1.008858204474E-02  1.513448179686E-02
  2.015115091088E-02  2.527723656897E-02  3.059269895389E-02  3.572435987247E-02
  4.073334664942E-02  4.589392675613E-02  5.109516791654E-02  5.621133901271E-02
  6.183979351557E-02  6.722512498246E-02  7.307943917649E-02  7.850155885119E-02
  8.432597200403E-02  8.950842564066E-02  9.500937932012E-02  1.008484072218E-01
  1.070462865031E-01  1.122777383704E-01  1.177648561701E-01  1.235201345346E-01
  1.295566787210E-01  1.358882344523E-01  1.425292192178E-01  1.477220900228E-01
  1.531041564703E-01  1.586823116628E-01  1.644636998444E-01  1.704557255504E-01
  1.766660630911E-01  1.831026663806E-01  1.897737791236E-01  1.966879453737E-01
  2.038540204763E-01  2.112811824101E-01  2.163823552782E-01  2.216066908640E-01
  2.269571628082E-01  2.324368165471E-01  2.380487710458E-01  2.437962205739E-01
  2.496824365235E-01  2.557107692709E-01  2.618846500842E-01  2.682075930758E-01
  2.746831972030E-01  2.813151483163E-01  2.881072212572E-01  2.950632820073E-01
  3.021872898880E-01  3.094832998151E-01  3.169554646058E-01  3.246080373433E-01
  3.324453737969E-01  3.404719349019E-01  3.486922892981E-01  3.571111159309E-01
  3.657332067140E-01  3.745634692569E-01  3.836069296586E-01  3.928687353683E-01
  4.023541581150E-01  4.120685969086E-01  4.220175811123E-01  4.270817920857E-01
  4.322067735907E-01  4.373932548738E-01  4.426419739323E-01  4.479536776194E-01
  4.533291217509E-01  4.587690712119E-01  4.642743000664E-01  4.698455916672E-01
  4.754837387672E-01  4.811895436324E-01  4.869638181560E-01  4.928073839739E-01
  4.987210725816E-01  5.047057254526E-01  5.107621941580E-01  5.168913404879E-01
  5.230940365738E-01  5.293711650126E-01  5.357236189928E-01  5.421523024207E-01
  5.486581300498E-01  5.552420276104E-01  5.619049319417E-01  5.686477911250E-01
  5.754715646185E-01  5.823772233939E-01  5.893657500746E-01  5.964381390755E-01
  6.035953967444E-01  6.108385415054E-01  6.181686040034E-01  6.255866272515E-01
  6.330936667785E-01  6.406907907798E-01  6.483790802692E-01  6.561596292324E-01
  6.640335447832E-01  6.720019473206E-01  6.800659706884E-01  6.882267623367E-01
  6.964854834847E-01  7.048433092866E-01  7.133014289980E-01  7.218610461460E-01
  7.305233786997E-01  7.392896592441E-01  7.481611351551E-01  7.571390687769E-01
  7.662247376022E-01  7.754194344535E-01  7.847244676669E-01  7.941411612789E-01
  8.036708552143E-01  8.133149054768E-01  8.230746843426E-01  8.329515805547E-01
  8.429469995213E-01  8.530623635156E-01  8.632991118778E-01  8.736587012203E-01
  8.841426056349E-01  8.947523169026E-01  9.054893447054E-01  9.163552168419E-01
  9.273514794440E-01  9.384796971973E-01  9.497414535637E-01  9.611383510064E-01
  9.726720112185E-01  9.843440753531E-01  9.961562042574E-01  1.008110078708E+00
  1.020207399653E+00  1.032449888449E+00  1.044839287110E+00  1.057377358555E+00
  1.070065886858E+00  1.082906677500E+00  1.095901557630E+00  1.109052376322E+00
  1.122361004838E+00  1.135829336896E+00  1.149459288939E+00  1.163252800406E+00
  1.177211834011E+00  1.191338376019E+00  1.205634436531E+00  1.220102049770E+00
  1.234743274367E+00  1.249560193659E+00  1.264554915983E+00  1.279729574975E+00
  1.295086329875E+00  1.310627365833E+00  1.326354894223E+00  1.342271152954E+00
  1.358378406789E+00  1.374678947671E+00  1.391175095043E+00  1.407869196183E+00
  1.424763626537E+00  1.441860790056E+00  1.459163119537E+00  1.476673076971E+00
  1.494393153895E+00  1.512325871741E+00  1.530473782202E+00  1.548839467589E+00
  1.567425541200E+00  1.586234647694E+00  1.605269463467E+00  1.624532697028E+00
  1.644027089392E+00  1.663755414465E+00  1.683720479439E+00  1.703925125192E+00
  1.724372226694E+00  1.745064693415E+00  1.766005469736E+00  1.787197535372E+00
  1.808643905797E+00  1.830347632666E+00  1.852311804258E+00  1.874539545910E+00
  1.897034020460E+00  1.919798428706E+00  1.942836009850E+00  1.966150041969E+00
  1.989743842472E+00  2.013620768582E+00  2.037784217805E+00  2.062237628419E+00
  2.086984479960E+00  2.112028293719E+00  2.137372633244E+00  2.163021104843E+00
  2.188977358101E+00  2.215245086398E+00  2.241828027435E+00  2.268729963764E+00
  2.295954723329E+00  2.323506180009E+00  2.351388254169E+00  2.379604913219E+00
  2.408160172178E+00  2.437058094244E+00  2.466302791375E+00  2.495898424871E+00
  2.525849205970E+00  2.556159396442E+00  2.586833309199E+00  2.617875308909E+00
  2.649289812616E+00  2.681081290368E+00  2.713254265852E+00  2.745813317042E+00
  2.778763076847E+00  2.812108233769E+00  2.845853532574E+00  2.880003774965E+00
  2.914563820265E+00  2.949538586108E+00  2.984933049141E+00  3.020752245731E+00
  3.057001272680E+00  3.093685287952E+00  3.130809511407E+00  3.168379225544E+00
  3.206399776250E+00  3.244876573566E+00  3.283815092448E+00  3.323220873558E+00
  3.363099524040E+00  3.403456718329E+00  3.444298198949E+00  3.485629777336E+00
  3.527457334664E+00  3.569786822680E+00  3.612624264552E+00  3.655975755727E+00
  3.699847464796E+00  3.744245634373E+00  3.789176581986E+00  3.834646700970E+00
  3.880662461381E+00  3.927230410918E+00  3.974357175849E+00  4.022049461959E+00
  4.070314055502E+00  4.119157824168E+00  4.168587718059E+00  4.218610770675E+00
  4.269234099923E+00  4.320464909122E+00  4.372310488032E+00  4.424778213888E+00
  4.477875552455E+00  4.531610059084E+00  4.585989379793E+00  4.641021252351E+00
  4.696713507379E+00  4.753074069468E+00  4.810110958301E+00  4.867832289801E+00
  4.926246277279E+00  4.985361232606E+00  5.045185567397E+00  5.105727794206E+00
  5.166996527736E+00  5.229000486069E+00  5.291748491902E+00  5.355249473805E+00
  5.419512467491E+00  5.484546617100E+00  5.550361176506E+00  5.616965510624E+00
  5.684369096751E+00  5.752581525912E+00  5.821612504223E+00  5.891471854274E+00
  5.962169516525E+00  6.033715550723E+00  6.106120137332E+00  6.179393578980E+00
  6.253546301928E+00  6.328588857551E+00  6.404531923842E+00  6.481386306928E+00
  6.559162942611E+00  6.637872897922E+00  6.717527372697E+00  6.798137701170E+00
  6.879715353584E+00  6.962271937827E+00  7.045819201080E+00  7.130369031493E+00
  7.215933459871E+00  7.302524661390E+00  7.390154957327E+00  7.478836816814E+00
  7.568582858616E+00  7.659405852920E+00  7.751318723155E+00  7.844334547832E+00
  7.938466562406E+00  8.033728161155E+00  8.130132899089E+00  8.227694493878E+00
  8.326426827805E+00  8.426343949738E+00  8.527460077135E+00  8.629789598061E+00
  8.733347073238E+00  8.838147238117E+00  8.944205004974E+00  9.051535465034E+00
  9.160153890614E+00  9.270075737301E+00  9.381316646149E+00  9.493892445903E+00
  9.607819155254E+00  9.723112985117E+00  9.839790340938E+00  9.957867825029E+00
  1.007736223893E+01  1.019829058580E+01  1.032067007283E+01  1.044451811370E+01
  1.056985233106E+01  1.069669055904E+01  1.082505084575E+01  1.095495145589E+01
  1.108641087337E+01  1.121944780385E+01  1.135408117749E+01  1.149033015162E+01
  1.162821411344E+01  1.176775268280E+01  1.190896571500E+01  1.205187330358E+01
  1.219649578322E+01  1.234285373262E+01  1.249096797741E+01  1.264085959314E+01
  1.279254990826E+01  1.294606050716E+01  1.310141323324E+01  1.325863019204E+01
  1.341773375434E+01  1.357874655940E+01  1.374169151811E+01  1.390659181633E+01
  1.407347091812E+01  1.424235256914E+01  1.441326079997E+01  1.458621992957E+01
  1.476125456872E+01  1.493838962355E+01  1.511765029903E+01  1.529906210262E+01
  1.548265084785E+01  1.566844265803E+01  1.585646396992E+01  1.604674153756E+01
  1.623930243601E+01  1.643417406524E+01  1.663138415403E+01  1.683096076387E+01
  1.703293229304E+01  1.723732748056E+01  1.744417541032E+01  1.765350551525E+01
  1.786534758143E+01  1.807973175241E+01  1.829668853344E+01  1.851624879584E+01
  1.873844378139E+01  1.896330510677E+01  1.919086476805E+01  1.942115514526E+01
  1.965420900701E+01  1.989005951509E+01  2.012874022927E+01  2.037028511202E+01
  2.061472853337E+01  2.086210527577E+01  2.111245053908E+01  2.136579994555E+01
  2.162218954489E+01  2.188165581943E+01  2.214423568926E+01  2.240996651754E+01
  2.267888611575E+01  2.295103274913E+01  2.322644514212E+01  2.350516248383E+01
  2.378722443364E+01  2.407267112684E+01  2.436154318036E+01  2.465388169853E+01
  2.494972827891E+01  2.524912501825E+01  2.555211451847E+01  2.585873989270E+01
  2.616904477141E+01  2.648307330866E+01  2.680087018837E+01  2.712248063063E+01
  2.744795039820E+01  2.777732580298E+01  2.811065371261E+01  2.844798155716E+01
  2.878935733585E+01  2.913482962388E+01  2.948444757936E+01  2.983826095032E+01
  3.019632008172E+01  3.055867592270E+01  3.092538003377E+01  3.129648459418E+01
  3.167204240931E+01  3.205210691822E+01  3.243673220124E+01  3.282597298765E+01
  3.321988466351E+01  3.361852327947E+01  3.402194555882E+01  3.443020890553E+01
  3.484337141239E+01  3.526149186934E+01  3.568462977178E+01  3.611284532904E+01
  3.654619947299E+01  3.698475386666E+01  3.742857091306E+01  3.787771376402E+01
  3.833224632919E+01  3.879223328514E+01  3.925774008456E+01  3.972883296557E+01
  4.020557896116E+01  4.068804590869E+01  4.117630245960E+01  4.167041808911E+01
  4.217046310618E+01  4.267650866346E+01  4.318862676742E+01  4.370689028863E+01
  4.423137297209E+01
</grid-data>
</grid>
<valence-charge total-charge="17" is-unscreening-charge="yes"
 rescaled-to-z-pseudo="no">
<radfunc>
<data npts="457">
  3.981254585064E-01  3.993938709473E-01  4.031871834059E-01  4.095210761707E-01
  4.183384588436E-01  4.299520227776E-01  4.447856687346E-01  4.618158825143E-01
  4.810210588226E-01  5.034927495352E-01  5.289193092935E-01  5.566726488459E-01
  5.903754689655E-01  6.257624070222E-01  6.677521046315E-01  7.099504979474E-01
  7.588670352885E-01  8.055531356307E-01  8.584051722926E-01  9.182662308168E-01
  9.861004829395E-01  1.046844906597E+00  1.114033017760E+00  1.188375744110E+00
  1.270665768484E+00  1.361786928918E+00  1.462724511396E+00  1.545525618916E+00
  1.634972093491E+00  1.731614967312E+00  1.836050805121E+00  1.948924881753E+00
  2.070934378525E+00  2.202831532070E+00  2.345426648644E+00  2.499590871980E+00
  2.666258562813E+00  2.846429112692E+00  2.974567823513E+00  3.109512010264E+00
  3.251606630368E+00  3.401209278072E+00  3.558689730765E+00  3.724429301328E+00
  3.898819966099E+00  4.082263234890E+00  4.275168726214E+00  4.477952407572E+00
  4.691034457331E+00  4.914836701467E+00  5.149779575404E+00  5.396278558408E+00
  5.654740025720E+00  5.925556461925E+00  6.209100978292E+00  6.505721077102E+00
  6.815731607697E+00  7.139406862436E+00  7.476971766297E+00  7.828592121919E+00
  8.194363882952E+00  8.574301443075E+00  8.968324946505E+00  9.376246648771E+00
  9.797756384462E+00  1.023240623200E+01  1.067959450472E+01  1.090765642257E+01
  1.113854924299E+01  1.137214711190E+01  1.160831143358E+01  1.184689035196E+01
  1.208771824050E+01  1.233061520388E+01  1.257538659536E+01  1.282182255368E+01
  1.306969756377E+01  1.331877004584E+01  1.356878197774E+01  1.381945855566E+01
  1.407050789873E+01  1.432162080311E+01  1.457247055162E+01  1.482271278507E+01
  1.507198544178E+01  1.531990877190E+01  1.556608543315E+01  1.581010067517E+01
  1.605152261907E+01  1.628990263935E+01  1.652477585504E+01  1.675566173677E+01
  1.698206483637E+01  1.720347564530E+01  1.741937158771E+01  1.762921815367E+01
  1.783247017733E+01  1.802857326401E+01  1.821696536981E+01  1.839707853574E+01
  1.856834077786E+01  1.873017813341E+01  1.888201686154E+01  1.902328579594E+01
  1.915341884493E+01  1.927185763274E+01  1.937805427399E+01  1.947147427140E+01
  1.955159952440E+01  1.961793143450E+01  1.966999409085E+01  1.970733751708E+01
  1.972954095841E+01  1.973621618562E+01  1.972701079035E+01  1.970161144388E+01
  1.965974708996E+01  1.960119203998E+01  1.952576893759E+01  1.943335155847E+01
  1.932386740993E+01  1.919730009461E+01  1.905369140228E+01  1.889314309439E+01
  1.871581834648E+01  1.852194281553E+01  1.831180530108E+01  1.808575797173E+01
  1.784421613222E+01  1.758765750986E+01  1.731662104425E+01  1.703170516898E+01
  1.673356558025E+01  1.642291249338E+01  1.610050739498E+01  1.576715930587E+01
  1.542372057676E+01  1.507108224642E+01  1.471016899919E+01  1.434193376592E+01
  1.396735201913E+01  1.358741581929E+01  1.320312767472E+01  1.281549428209E+01
  1.242552021789E+01  1.203420165384E+01  1.164252016967E+01  1.125143673677E+01
  1.086188594374E+01  1.047477053145E+01  1.009095630030E+01  9.711267445476E+00
  9.336482368140E+00  8.967330001419E+00  8.604486679534E+00  8.248573567623E+00
  7.900154658257E+00  7.559735329096E+00  7.227761444825E+00  6.904618975911E+00
  6.590634097228E+00  6.286073721605E+00  5.991146417314E+00  5.706003655046E+00
  5.430741329802E+00  5.165401542315E+00  4.909974759783E+00  4.664402581017E+00
  4.428582341842E+00  4.202376510449E+00  3.985624587080E+00  3.778145695855E+00
  3.579741061683E+00  3.390196375969E+00  3.209284059537E+00  3.036765404182E+00
  2.872392591587E+00  2.715910586882E+00  2.567058905554E+00  2.425573253518E+00
  2.291187041112E+00  2.163632772698E+00  2.042643314278E+00  1.927953042295E+00
  1.819298877298E+00  1.716421206735E+00  1.619064701487E+00  1.526979031204E+00
  1.439919483392E+00  1.357647492265E+00  1.279931082336E+00  1.206545232691E+00
  1.137272167520E+00  1.071901578520E+00  1.010230784709E+00  9.520648350713E-01
  8.972165593155E-01  8.455065718337E-01  7.967632337774E-01  7.508225779289E-01
  7.075282008257E-01  6.667311263469E-01  6.282896447242E-01  5.920691306802E-01
  5.579418441427E-01  5.257867167248E-01  4.954891269068E-01  4.669406666068E-01
  4.400389015853E-01  4.146871278905E-01  3.907941263307E-01  3.682739167384E-01
  3.470455135906E-01  3.270326843532E-01  3.081637117364E-01  2.903711608789E-01
  2.735916523193E-01  2.577656414693E-01  2.428372051664E-01  2.287538357662E-01
  2.154662431183E-01  2.029281646738E-01  1.910961838801E-01  1.799295569418E-01
  1.693900479533E-01  1.594417723499E-01  1.500510485699E-01  1.411862577749E-01
  1.328177114384E-01  1.249175265791E-01  1.174595083930E-01  1.104190400130E-01
  1.037729791156E-01  9.749956107774E-02  9.157830838382E-02  8.598994597626E-02
  8.071632224476E-02  7.574033534968E-02  7.104586457996E-02  6.661770645180E-02
  6.244151526196E-02  5.850374781841E-02  5.479161208094E-02  5.129301945492E-02
  4.799654049284E-02  4.489136376957E-02  4.196725770919E-02  3.921453515328E-02
  3.662402047214E-02  3.418701903226E-02  3.189528884474E-02  2.974101423055E-02
  2.771678134920E-02  2.581555544785E-02  2.403065969786E-02  2.235575549491E-02
  2.078482410830E-02  1.931214957342E-02  1.793230272834E-02  1.664012630502E-02
  1.543072099080E-02  1.429943238336E-02  1.324183876824E-02  1.225373965358E-02
  1.133114500232E-02  1.047026510671E-02  9.667501054772E-03  8.919435742253E-03
  8.222825387822E-03  7.574591512526E-03  6.971813347988E-03  6.411720640800E-03
  5.891686823343E-03  5.409222523860E-03  4.961969390925E-03  4.547694209671E-03
  4.164283289094E-03  3.809737101618E-03  3.482165157769E-03  3.179781100375E-03
  2.900898004137E-03  2.643923867715E-03  2.407357286694E-03  2.189783296884E-03
  1.989869378434E-03  1.806361612166E-03  1.638080980368E-03  1.483919805074E-03
  1.342838317567E-03  1.213861353433E-03  1.096075168140E-03  9.886243685602E-04
  8.907089563699E-04  8.015814796318E-04  7.205442892587E-04  6.469468973499E-04
  5.801834346794E-04  5.196902048438E-04  4.649433327794E-04  4.154565055190E-04
  3.707788031949E-04  3.304926183963E-04  2.942116620709E-04  2.615790542137E-04
  2.322654976222E-04  2.059675330131E-04  1.824058737993E-04  1.613238188095E-04
  1.424857412161E-04  1.256756518988E-04  1.106958354393E-04  9.736555689529E-05
  8.551983745986E-05  7.500829706230E-05  6.569406192388E-05  5.745273503523E-05
  5.017142748225E-05  4.374784850997E-05  3.808945218233E-05  3.311263846985E-05
  2.874200657753E-05  2.490965831334E-05  2.155454929191E-05  1.862188577077E-05
  1.606256492564E-05  1.383265638909E-05  1.189292290053E-05  1.020837794744E-05
  8.747878315308E-06  7.483749508154E-06  6.391442051300E-06  5.449216743124E-06
  4.637856982290E-06  3.940406360676E-06  3.341929779379E-06  2.829296415263E-06
  2.390982937705E-06  2.016895449137E-06  1.698208697933E-06  1.427221187698E-06
  1.197224882525E-06  1.002388282879E-06  8.376517208698E-07  6.986337966098E-07
  5.815479484925E-07  4.831282195241E-07  4.005633488118E-07  3.314383818671E-07
  2.736830552651E-07  2.255262702963E-07  1.854560264288E-07  1.521842386050E-07
  1.246159125868E-07  1.018221997105E-07  8.301689656337E-08  6.753599625202E-08
  5.481993619692E-08  4.439822280516E-08  3.587614606379E-08  2.892332715234E-08
  2.326386971942E-08  1.866791062730E-08  1.494438887170E-08  1.193487216469E-08
  9.508299462150E-09  7.556514658728E-09  5.990481895692E-09  4.737086561846E-09
  3.736438240810E-09  2.939602692298E-09  2.306699566962E-09  1.805311055194E-09
  1.409154164661E-09  1.096975907815E-09  8.516364508412E-10  6.593503153214E-10
  5.090601066340E-10  3.919210852131E-10  3.008780252386E-10  2.272469022611E-10
  1.735501599575E-10  1.321484870470E-10  1.003216385410E-10  7.592891411664E-11
  5.729076326460E-11  4.309345948845E-11  3.231258605122E-11  2.415181296812E-11
  1.799406401736E-11  1.336269062707E-11  9.890701570185E-12  7.296456487496E-12
  5.364528647339E-12  3.930687773568E-12  2.870155594008E-12  2.088452134357E-12
  1.514285802540E-12  1.094050147767E-12  7.875792069177E-13  5.648852457582E-13
  4.036605458842E-13  2.873712521127E-13  2.038083173248E-13  1.439900319176E-13
  1.013339616972E-13  7.103453851504E-14  4.959703087760E-14  3.448996376326E-14
  2.388690361884E-14  1.647539708404E-14  1.131616916256E-14  7.739783390359E-15
  5.271109978968E-15  3.574349659861E-15  2.413188216653E-15  1.622040905995E-15
  1.085390002673E-15  7.230027033034E-16  4.794027390314E-16  3.164052603933E-16
  2.078477326578E-16  1.358879110221E-16  8.841491100926E-17  5.724720547016E-17
  3.688431943821E-17  2.364624997996E-17  1.508307180278E-17  9.571897232733E-18
  6.043107649944E-18  3.795331847438E-18  2.371040755741E-18  1.473331634308E-18
  9.105552337427E-19  5.596649135826E-19  3.420875341923E-19  2.079240990214E-19
  1.256612861288E-19  7.550880382799E-20  4.510898599489E-20  2.678967992051E-20
  1.581540078582E-20  9.280469574414E-21  5.412591382134E-21  3.137286252206E-21
  1.807108897506E-21  1.034339221866E-21  5.882430848300E-22  3.323781945984E-22
  0.000000000000E+00  0.000000000000E+00  0.000000000000E+00  0.000000000000E+00
  0.000000000000E+00  0.000000000000E+00  0.000000000000E+00  0.000000000000E+00
  0.000000000000E+00
</data>
</radfunc>
</valence-charge>
<pseudocore-charge matching-radius="0.656159629232"
 number-of-continuous-derivatives="4">
<annotation model-charge-form="Teter function with specified parameters" />
<radfunc>
<data npts="290">
  1.418401763746E+02  1.418226262478E+02  1.417701688881E+02  1.416826715675E+02
  1.415610609436E+02  1.414012277396E+02  1.411976405929E+02  1.409646783145E+02
  1.407029444648E+02  1.403979985182E+02  1.400546299424E+02  1.396818419135E+02
  1.392319043216E+02  1.387626899905E+02  1.382101027037E+02  1.376592395971E+02
  1.370261563479E+02  1.364272977146E+02  1.357555046097E+02  1.350023116854E+02
  1.341583830032E+02  1.334110446480E+02  1.325933778899E+02  1.316992581595E+02
  1.307221310074E+02  1.296550045514E+02  1.284904476580E+02  1.275483760241E+02
  1.265436107587E+02  1.254725512476E+02  1.243314781473E+02  1.231165643842E+02
  1.218238893406E+02  1.204494566847E+02  1.189892163355E+02  1.174390910921E+02
  1.157950084832E+02  1.140529384218E+02  1.128351683780E+02  1.115709559500E+02
  1.102591988369E+02  1.088988375382E+02  1.074888643220E+02  1.060283329486E+02
  1.045163691730E+02  1.029521820449E+02  1.013350760167E+02  9.966446386500E+01
  9.793988041915E+01  9.616099708088E+01  9.432763710606E+01  9.243979160412E+01
  9.049763619389E+01  8.850154823515E+01  8.645212453307E+01  8.435019938832E+01
  8.219686283865E+01  7.999347890789E+01  7.774170364655E+01  7.544350271339E+01
  7.310116821149E+01  7.071733445371E+01  6.829499229413E+01  6.583750162210E+01
  6.334860157752E+01  6.083241800889E+01  5.829346766210E+01  5.701697349643E+01
  5.573665855954E+01  5.445319683778E+01  5.316728600714E+01  5.187964702888E+01
  5.059102365432E+01  4.930218183452E+01  4.801390903041E+01  4.672701341942E+01
  4.544232299448E+01  4.416068455197E+01  4.288296256497E+01  4.161003793882E+01
  4.034280664640E+01  3.908217824071E+01  3.782907424313E+01  3.658442640618E+01
  3.534917485005E+01  3.412426607323E+01  3.291065083797E+01  3.170928193222E+01
  3.052111181078E+01  2.934709011890E+01  2.818816110308E+01  2.704526091444E+01
  2.591931481145E+01  2.481123426995E+01  2.372191400934E+01  2.265222894552E+01
  2.160303108207E+01  2.057514635281E+01  1.956937142981E+01  1.858647051278E+01
  1.762717211660E+01  1.669216587534E+01  1.578209938231E+01  1.489757508685E+01
  1.403914726963E+01  1.320731911935E+01  1.240253993461E+01  1.162520247524E+01
  1.087564048832E+01  1.015412643406E+01  9.460869437305E+00  8.796013489901E+00
  8.159635929150E+00  7.551746216696E+00  6.972285041315E+00  6.421123767756E+00
  5.898064252121E+00  5.402839042256E+00  4.935111979242E+00  4.494479213286E+00
  4.080470644193E+00  3.692551793052E+00  3.330126107931E+00  2.992537702119E+00
  2.679074518982E+00  2.388971912686E+00  2.121416629034E+00  1.875551165501E+00
  1.650478484255E+00  1.445267046663E+00  1.258956132511E+00  1.090561402088E+00
  9.390806543860E-01  8.034997301696E-01  6.827985046127E-01  5.759569106689E-01
  4.819609315354E-01  3.998084985094E-01  3.285152293654E-01  2.671199421847E-01
  2.146898804243E-01  1.703255869872E-01  1.331653681960E-01  1.023892929016E-01
  7.722267747602E-02  5.693901411088E-02  4.086230761389E-02  2.836879466572E-02
  1.888802914373E-02  1.190332747452E-02  6.951578849724E-03  3.622436302646E-03
  1.556915847235E-03  4.454418493650E-04  2.538724627224E-05  7.816685527782E-05
  4.259505230340E-04  9.280699778084E-04  1.477198698806E-03  1.995387681279E-03
  2.430041472501E-03  2.749918156121E-03  2.941234011543E-03  3.003948385600E-03
  2.948296980841E-03  2.791632466487E-03  2.555620315593E-03  2.263825405161E-03
  1.939711595418E-03  1.605062698720E-03  1.278819467711E-03  9.763140076234E-04
  7.088708778619E-04  4.837335942274E-04  3.042667216389E-04  1.703776238797E-04
  7.909847272415E-05  2.526845015011E-05  2.258201041234E-06  2.683359738375E-06
  1.906108590470E-05  4.437257150267E-05  7.250487333834E-05  9.855654978286E-05
  1.190027513654E-04  1.317259420279E-04  1.359276606139E-04  1.319441080874E-04
  1.209934340002E-04  1.048851326140E-04  8.572187460005E-05  6.562152796667E-05
  4.648239343698E-05  2.980830125618E-05  1.660282910010E-05  7.334224724986E-06
  1.965386921141E-06  3.715331275606E-08  7.887193428913E-07  3.296643595845E-06
  6.613731500744E-06  9.891041363652E-06  1.246999788258E-05  1.393660349777E-05
  1.413534252484E-05  1.314585300793E-05  1.123010371763E-05  8.761086857591E-06
  6.145547130426E-06  3.752891922197E-06  1.860312330949E-06  6.206875232241E-07
  5.563465356311E-08  0.000000000000E+00  0.000000000000E+00  0.000000000000E+00
  0.000000000000E+00  0.000000000000E+00  0.000000000000E+00  0.000000000000E+00
  0.000000000000E+00  0.000000000000E+00  0.000000000000E+00  0.000000000000E+00
  0.000000000000E+00  0.000000000000E+00  0.000000000000E+00  0.000000000000E+00
  0.000000000000E+00  0.000000000000E+00  0.000000000000E+00  0.000000000000E+00
  0.000000000000E+00  0.000000000000E+00  0.000000000000E+00  0.000000000000E+00
  0.000000000000E+00  0.000000000000E+00  0.000000000000E+00  0.000000000000E+00
  0.000000000000E+00  0.000000000000E+00  0.000000000000E+00  0.000000000000E+00
  0.000000000000E+00  0.000000000000E+00  0.000000000000E+00  0.000000000000E+00
  0.000000000000E+00  0.000000000000E+00  0.000000000000E+00  0.000000000000E+00
  0.000000000000E+00  0.000000000000E+00  0.000000000000E+00  0.000000000000E+00
  0.000000000000E+00  0.000000000000E+00  0.000000000000E+00  0.000000000000E+00
  0.000000000000E+00  0.000000000000E+00  0.000000000000E+00  0.000000000000E+00
  0.000000000000E+00  0.000000000000E+00  0.000000000000E+00  0.000000000000E+00
  0.000000000000E+00  0.000000000000E+00  0.000000000000E+00  0.000000000000E+00
  0.000000000000E+00  0.000000000000E+00  0.000000000000E+00  0.000000000000E+00
  0.000000000000E+00  0.000000000000E+00  0.000000000000E+00  0.000000000000E+00
  0.000000000000E+00  0.000000000000E+00  0.000000000000E+00  0.000000000000E+00
  0.000000000000E+00  0.000000000000E+00  0.000000000000E+00  0.000000000000E+00
  0.000000000000E+00  0.000000000000E+00
</data>
</radfunc>
</pseudocore-charge>
<semilocal-potentials set="scalar_relativistic">
<slps n="4" l="s" rc="1.40786919618" eref="-3.03377196883">
<radfunc>
<data npts="290">
  2.423547698760E+01  2.421470351707E+01  2.415269428325E+01  2.404953963669E+01
  2.390673526824E+01  2.372004486303E+01  2.348387454695E+01  2.321583790288E+01
  2.291747504457E+01  2.257350408645E+01  2.219081819759E+01  2.178078681333E+01
  2.129328475388E+01  2.079330193347E+01  2.021519431812E+01  1.965010529338E+01
  1.901408196815E+01  1.842523366832E+01  1.777898853659E+01  1.707182747763E+01
  1.630048809636E+01  1.563525556717E+01  1.492585208454E+01  1.417129635526E+01
  1.337091938843E+01  1.252441602256E+01  1.163189550438E+01  1.093263147375E+01
  1.020821955943E+01  9.459254178384E+00  8.686505614120E+00  7.890925312362E+00
  7.073649023607E+00  6.235997548123E+00  5.379474883927E+00  4.505763635880E+00
  3.616717612819E+00  2.714351617757E+00  2.106436744864E+00  1.494234724198E+00
  8.784437943228E-01  2.597836592077E-01 -3.610071449443E-01 -9.831740154117E-01
 -1.605949153177E+00 -2.228554507592E+00 -2.850204763819E+00 -3.470110340277E+00
 -4.087480362737E+00 -4.701525581671E+00 -5.311461199928E+00 -5.916509578880E+00
 -6.515902792667E+00 -7.108885002235E+00 -7.694714623296E+00 -8.272666265213E+00
 -8.842032420990E+00 -9.402124892059E+00 -9.952275935244E+00 -1.049183912319E+01
 -1.102018991352E+01 -1.153672592622E+01 -1.204086693255E+01 -1.253205456347E+01
 -1.300975174913E+01 -1.347344190563E+01 -1.392262788901E+01 -1.414163146902E+01
 -1.435683074082E+01 -1.456816844066E+01 -1.477558825373E+01 -1.497903476183E+01
 -1.517845338962E+01 -1.537379034973E+01 -1.556499258721E+01 -1.575200772345E+01
 -1.593478400025E+01 -1.611327022417E+01 -1.628741571173E+01 -1.645717023588E+01
 -1.662248397406E+01 -1.678330745853E+01 -1.693959152922E+01 -1.709128728980E+01
 -1.723834606728E+01 -1.738071937583E+01 -1.751835888527E+01 -1.765121639471E+01
 -1.777924381205E+01 -1.790239313965E+01 -1.802061646703E+01 -1.813386597077E+01
 -1.824209392253E+01 -1.834525270542E+01 -1.844329483944E+01 -1.853617301636E+01
 -1.862384014462E+01 -1.870624940464E+01 -1.878335431502E+01 -1.885510880991E+01
 -1.892146732814E+01 -1.898238491413E+01 -1.903781733110E+01 -1.908772118674E+01
 -1.913205407140E+01 -1.917077470920E+01 -1.920384312191E+01 -1.923122080584E+01
 -1.925287092168E+01 -1.926875849724E+01 -1.927885064312E+01 -1.928311678123E+01
 -1.928152888592E+01 -1.927406173778E+01 -1.926069318982E+01 -1.924140444589E+01
 -1.921618035116E+01 -1.918500969440E+01 -1.914788552179E+01 -1.910480546203E+01
 -1.905577206225E+01 -1.900079313438E+01 -1.893988211139E+01 -1.887305841272E+01
 -1.880034781824E+01 -1.872178284952E+01 -1.863740315752E+01 -1.854725591509E+01
 -1.845139621280E+01 -1.834988745614E+01 -1.824280176186E+01 -1.813022035122E+01
 -1.801223393712E+01 -1.788894310251E+01 -1.776045866672E+01 -1.762690203659E+01
 -1.748840553922E+01 -1.734511273321E+01 -1.719717869585E+01 -1.704477028393E+01
 -1.688806636721E+01 -1.672725803445E+01 -1.656254877376E+01 -1.639415463123E+01
 -1.622230435431E+01 -1.604723953007E+01 -1.586921473215E+01 -1.568849769517E+01
 -1.550536954056E+01 -1.532012508411E+01 -1.513307326175E+01 -1.494453771766E+01
 -1.475485760557E+01 -1.456438866134E+01 -1.437350461127E+01 -1.418259898538E+01