<?xml version="1.0" encoding="UTF-8" ?>
<psml version="1.1" energy_unit="hartree" length_unit="bohr"
 uuid="11aa6a20-23d4-11e8-591e-831abd5ba8de"
 xmlns="http://esl.cecam.org/PSML/ns/1.1">
<provenance creator="ONCVPSP-3.3.0+psml-3.3.0-73 (scalar-relativistic)"
 date="2018-03-09">
<annotation action="semilocal-pseudopotential-generation"
 action-cont="projectors-generation" />
<input-file name="oncvpsp-input">
<![CDATA[# atsym z nc nv iexc psfile
Rn 86 12 3 -001012 upf
# n l f
1 0 2.0
2 0 2.0
2 1 6.0
3 0 2.0
3 1 6.0
3 2 10.0
4 0 2.0
4 1 6.0
4 2 10.0
5 0 2.0
5 1 6.0
4 3 14.0
5 2 10.0
6 0 2.0
6 1 6.0
# lmax
2
# l rc ep ncon nbas qcut
0 2.2 0.0 4 7 3.6
1 2.0 0.0 4 7 4.6
2 1.8 0.0 4 8 8.4
# lloc lpopt rc5 dvloc0
4 5 1.8 0.0
# l nproj debl
0 2 2.6
1 2 2.5
2 2 1.8
# icmod fcfact rcfact
3 6.0 1.34
# epsh1 epsh2 depsh
-12.0 12.0 0.02
# rlmax drl
6.0 0.01
 0
]]>
</input-file>
</provenance>
<pseudo-atom-spec atomic-label="Rn" atomic-number="86" z-pseudo="18"
 flavor="Hamann&apos;s oncvpsp" relativity="scalar" spin-dft="no"
 core-corrections="yes">
<annotation pseudo-energy="-110.118911919" />
<exchange-correlation>
<annotation oncvpsp-xc-code="-1012" oncvpsp-xc-type="libxc-interface" />
<libxc-info number-of-functionals="2">
<functional name="Slater exchange (LDA)" type="exchange" id="1" />
<functional name="Perdew &amp; Wang (LDA)" type="correlation" id="12" />
</libxc-info>
</exchange-correlation>
<valence-configuration total-valence-charge="18">
<shell n="5" l="d" occupation="10" />
<shell n="6" l="s" occupation="2" />
<shell n="6" l="p" occupation="6" />
</valence-configuration>
</pseudo-atom-spec>
<grid npts="457">
<annotation type="sampled from oncvpsp log grid"
 recipe="r(i:1..N) = r1*exp(a*(i-1)) + r=0; resampled"
 recipe-cont="r1: scale; a: step" scale="0.581395348837E-05"
 step="0.119285708653E-01" delta="0.500000000000E-02" rmax="44.0749834721" />
<grid-data>
  0.000000000000E+00  5.032944516527E-03  1.005291170046E-02  1.508097059243E-02
  2.032086102386E-02  2.549011784273E-02  3.085034629218E-02  3.602522532560E-02
  4.107639707330E-02  4.628043884812E-02  5.152548411822E-02  5.668474287617E-02
  6.236059941843E-02  6.779128537727E-02  7.282105115488E-02  7.822399976325E-02
  8.402781945494E-02  8.919194941589E-02  9.467345329450E-02  1.004918360615E-01
  1.066678014120E-01  1.118807563599E-01  1.173484732785E-01  1.230834026227E-01
  1.290986033132E-01  1.354077724720E-01  1.420252766125E-01  1.471997869097E-01
  1.525628239076E-01  1.581212563368E-01  1.638822031812E-01  1.698530427959E-01
  1.760414223571E-01  1.824552676560E-01  1.891027932499E-01  1.959925129832E-01
  2.031332508913E-01  2.105341525020E-01  2.156172890801E-01  2.208231529076E-01
  2.261547071114E-01  2.316149863599E-01  2.372070985906E-01  2.429342267789E-01
  2.487996307503E-01  2.548066490351E-01  2.609587007694E-01  2.672592876408E-01
  2.737119958816E-01  2.803204983102E-01  2.870885564214E-01  2.940200225276E-01
  3.011188419515E-01  3.083890552716E-01  3.158348006221E-01  3.234603160483E-01
  3.312699419190E-01  3.392681233967E-01  3.474594129680E-01  3.558484730347E-01
  3.644400785676E-01  3.732391198245E-01  3.822506051336E-01  3.914796637439E-01
  4.009315487454E-01  4.106116400583E-01  4.205254474958E-01  4.255717528658E-01
  4.306786139002E-01  4.358467572670E-01  4.410769183542E-01  4.463698413744E-01
  4.517262794709E-01  4.571469948246E-01  4.626327587625E-01  4.681843518676E-01
  4.738025640900E-01  4.794881948591E-01  4.852420531974E-01  4.910649578358E-01
  4.969577373298E-01  5.029212301778E-01  5.089562849399E-01  5.150637603592E-01
  5.212445254835E-01  5.274994597893E-01  5.338294533068E-01  5.402354067465E-01
  5.467182316274E-01  5.532788504069E-01  5.599181966118E-01  5.666372149712E-01
  5.734368615508E-01  5.803181038894E-01  5.872819211361E-01  5.943293041897E-01
  6.014612558400E-01  6.086787909101E-01  6.159829364010E-01  6.233747316378E-01
  6.308552284175E-01  6.384254911585E-01  6.460865970524E-01  6.538396362170E-01
  6.616857118516E-01  6.696259403938E-01  6.776614516786E-01  6.857933890987E-01
  6.940229097679E-01  7.023511846851E-01  7.107793989013E-01  7.193087516881E-01
  7.279404567084E-01  7.366757421889E-01  7.455158510952E-01  7.544620413083E-01
  7.635155858040E-01  7.726777728337E-01  7.819499061077E-01  7.913333049810E-01
  8.008293046407E-01  8.104392562964E-01  8.201645273720E-01  8.300065017004E-01
  8.399665797208E-01  8.500461786775E-01  8.602467328216E-01  8.705696936155E-01
  8.810165299389E-01  8.915887282981E-01  9.022877930377E-01  9.131152465542E-01
  9.240726295128E-01  9.351615010670E-01  9.463834390798E-01  9.577400403487E-01
  9.692329208329E-01  9.808637158829E-01  9.926340804735E-01  1.004545689439E+00
  1.016600237712E+00  1.028799440565E+00  1.041145033852E+00  1.053638774258E+00
  1.066282439549E+00  1.079077828824E+00  1.092026762770E+00  1.105131083923E+00
  1.118392656930E+00  1.131813368813E+00  1.145395129239E+00  1.159139870790E+00
  1.173049549239E+00  1.187126143830E+00  1.201371657556E+00  1.215788117447E+00
  1.230377574856E+00  1.245142105754E+00  1.260083811023E+00  1.275204816756E+00
  1.290507274557E+00  1.305993361851E+00  1.321665282194E+00  1.337525265580E+00
  1.353575568767E+00  1.369818475592E+00  1.386256297299E+00  1.402891372867E+00
  1.419726069341E+00  1.436762782173E+00  1.454003935559E+00  1.471451982786E+00
  1.489109406579E+00  1.506978719458E+00  1.525062464092E+00  1.543363213661E+00
  1.561883572225E+00  1.580626175092E+00  1.599593689193E+00  1.618788813463E+00
  1.638214279225E+00  1.657872850575E+00  1.677767324782E+00  1.697900532680E+00
  1.718275339072E+00  1.738894643141E+00  1.759761378858E+00  1.780878515405E+00
  1.802249057589E+00  1.823876046281E+00  1.845762558836E+00  1.867911709542E+00
  1.890326650056E+00  1.913010569857E+00  1.935966696695E+00  1.959198297056E+00
  1.982708676620E+00  2.006501180740E+00  2.030579194909E+00  2.054946145248E+00
  2.079605498991E+00  2.104560764979E+00  2.129815494158E+00  2.155373280088E+00
  2.181237759449E+00  2.207412612563E+00  2.233901563913E+00  2.260708382680E+00
  2.287836883272E+00  2.315290925872E+00  2.343074416982E+00  2.371191309986E+00
  2.399645605706E+00  2.428441352974E+00  2.457582649210E+00  2.487073641001E+00
  2.516918524693E+00  2.547121546989E+00  2.577687005553E+00  2.608619249619E+00
  2.639922680615E+00  2.671601752782E+00  2.703660973816E+00  2.736104905501E+00
  2.768938164367E+00  2.802165422340E+00  2.835791407408E+00  2.869820904297E+00
  2.904258755148E+00  2.939109860210E+00  2.974379178533E+00  3.010071728675E+00
  3.046192589419E+00  3.082746900492E+00  3.119739863298E+00  3.157176741658E+00
  3.195062862557E+00  3.233403616908E+00  3.272204460311E+00  3.311470913835E+00
  3.351208564801E+00  3.391423067578E+00  3.432120144389E+00  3.473305586122E+00
  3.514985253155E+00  3.557165076193E+00  3.599851057108E+00  3.643049269793E+00
  3.686765861030E+00  3.731007051363E+00  3.775779135979E+00  3.821088485611E+00
  3.866941547438E+00  3.913344846008E+00  3.960304984160E+00  4.007828643970E+00
  4.055922587697E+00  4.104593658750E+00  4.153848782655E+00  4.203694968046E+00
  4.254139307663E+00  4.305188979355E+00  4.356851247107E+00  4.409133462072E+00
  4.462043063617E+00  4.515587580381E+00  4.569774631345E+00  4.624611926921E+00
  4.680107270045E+00  4.736268557285E+00  4.793103779972E+00  4.850621025332E+00
  4.908828477636E+00  4.967734419368E+00  5.027347232400E+00  5.087675399189E+00
  5.148727503979E+00  5.210512234027E+00  5.273038380835E+00  5.336314841405E+00
  5.400350619502E+00  5.465154826936E+00  5.530736684859E+00  5.597105525078E+00
  5.664270791379E+00  5.732242040875E+00  5.801028945366E+00  5.870641292710E+00
  5.941088988223E+00  6.012382056081E+00  6.084530640754E+00  6.157545008443E+00
  6.231435548545E+00  6.306212775127E+00  6.381887328429E+00  6.458469976370E+00
  6.535971616086E+00  6.614403275479E+00  6.693776114785E+00  6.774101428163E+00
  6.855390645300E+00  6.937655333044E+00  7.020907197041E+00  7.105158083405E+00
  7.190419980406E+00  7.276705020171E+00  7.364025480413E+00  7.452393786178E+00
  7.541822511612E+00  7.632324381751E+00  7.723912274332E+00  7.816599221624E+00
  7.910398412284E+00  8.005323193231E+00  8.101387071550E+00  8.198603716409E+00
  8.296986961006E+00  8.396550804538E+00  8.497309414192E+00  8.599277127162E+00
  8.702468452688E+00  8.806898074121E+00  8.912580851010E+00  9.019531821222E+00
  9.127766203077E+00  9.237299397514E+00  9.348146990284E+00  9.460324754167E+00
  9.573848651217E+00  9.688734835032E+00  9.804999653052E+00  9.922659648889E+00
  1.004173156468E+01  1.016223234345E+01  1.028417913157E+01  1.040758928115E+01
  1.053248035253E+01  1.065887011676E+01  1.078677655816E+01  1.091621787686E+01
  1.104721249138E+01  1.117977904127E+01  1.131393638977E+01  1.144970362645E+01
  1.158710006996E+01  1.172614527080E+01  1.186685901405E+01  1.200926132222E+01
  1.215337245809E+01  1.229921292759E+01  1.244680348272E+01  1.259616512451E+01
  1.274731910600E+01  1.290028693528E+01  1.305509037850E+01  1.321175146304E+01
  1.337029248060E+01  1.353073599036E+01  1.369310482225E+01  1.385742208012E+01
  1.402371114508E+01  1.419199567882E+01  1.436229962696E+01  1.453464722249E+01
  1.470906298916E+01  1.488557174503E+01  1.506419860597E+01  1.524496898924E+01
  1.542790861711E+01  1.561304352051E+01  1.580040004276E+01  1.599000484327E+01
  1.618188490139E+01  1.637606752021E+01  1.657258033045E+01  1.677145129442E+01
  1.697270870995E+01  1.717638121447E+01  1.738249778904E+01  1.759108776251E+01
  1.780218081566E+01  1.801580698545E+01  1.823199666928E+01  1.845078062931E+01
  1.867218999686E+01  1.889625627682E+01  1.912301135214E+01  1.935248748837E+01
  1.958471733823E+01  1.981973394629E+01  2.005757075364E+01  2.029826160269E+01
  2.054184074192E+01  2.078834283082E+01  2.103780294479E+01  2.129025658013E+01
  2.154573965909E+01  2.180428853500E+01  2.206593999742E+01  2.233073127739E+01
  2.259870005272E+01  2.286988445335E+01  2.314432306679E+01  2.342205494359E+01
  2.370311960292E+01  2.398755703815E+01  2.427540772261E+01  2.456671261528E+01
  2.486151316666E+01  2.515985132466E+01  2.546176954056E+01  2.576731077505E+01
  2.607651850435E+01  2.638943672640E+01  2.670610996712E+01  2.702658328672E+01
  2.735090228616E+01  2.767911311360E+01  2.801126247096E+01  2.834739762061E+01
  2.868756639206E+01  2.903181718876E+01  2.938019899503E+01  2.973276138297E+01
  3.008955451956E+01  3.045062917380E+01  3.081603672388E+01  3.118582916457E+01
  3.156005911455E+01  3.193877982392E+01  3.232204518181E+01  3.270990972399E+01
  3.310242864068E+01  3.349965778436E+01  3.390165367778E+01  3.430847352191E+01
  3.472017520417E+01  3.513681730662E+01  3.555845911430E+01  3.598516062367E+01
  3.641698255116E+01  3.685398634177E+01  3.729623417787E+01  3.774378898801E+01
  3.819671445586E+01  3.865507502933E+01  3.911893592969E+01  3.958836316084E+01
  4.006342351877E+01  4.054418460100E+01  4.103071481621E+01  4.152308339400E+01
  4.202136039473E+01  4.252561671947E+01  4.303592412010E+01  4.355235520954E+01
  4.407498347206E+01
</grid-data>
</grid>
<valence-charge total-charge="18" is-unscreening-charge="yes"
 rescaled-to-z-pseudo="no">
<radfunc>
<data npts="457">
  9.204184874108E-02  9.205736453040E-02  9.210637401127E-02  9.219690315874E-02
  9.234957085423E-02  9.257859680970E-02  9.292606876206E-02  9.340038125517E-02
  9.403103774651E-02  9.489646184938E-02  9.603947205105E-02  9.748287712116E-02
  9.950624927047E-02  1.019446636542E-01  1.047115754387E-01  1.083076597885E-01
  1.129896484291E-01  1.179607434540E-01  1.241667179233E-01  1.319189122328E-01
  1.416064280188E-01  1.510724038416E-01  1.623879623368E-01  1.759133387826E-01
  1.920769865332E-01  2.113877031126E-01  2.344486344381E-01  2.546300143870E-01
  2.776672775252E-01  3.039535882775E-01  3.339329205734E-01  3.681057861615E-01
  4.070354008784E-01  4.513542666486E-01  5.017711270734E-01  5.590782289959E-01
  6.241587903485E-01  6.979945347785E-01  7.526148872175E-01  8.119573870235E-01
  8.763951059946E-01  9.463250833238E-01  1.022168997677E+00  1.104373701577E+00
  1.193411583838E+00  1.289780721157E+00  1.394004774979E+00  1.506632584443E+00
  1.628237400664E+00  1.759415701804E+00  1.900785522547E+00  2.052984225659E+00
  2.216665637642E+00  2.392496465082E+00  2.581151903554E+00  2.783310346984E+00
  2.999647102755E+00  3.230827016716E+00  3.477495913358E+00  3.740270760032E+00
  4.019728471059E+00  4.316393278380E+00  4.630722610879E+00  4.963091445438E+00
  5.313775119937E+00  5.682930632617E+00  6.070576494307E+00  6.271295962096E+00
  6.476571250664E+00  6.686355969991E+00  6.900590851361E+00  7.119202995181E+00
  7.342105112498E+00  7.569194763603E+00  7.800353597510E+00  8.035446596476E+00
  8.274321330164E+00  8.516807224428E+00  8.762714850177E+00  9.011835238174E+00
  9.263939226074E+00  9.518776844458E+00  9.776076749027E+00  1.003554570655E+01
  1.029686814258E+01  1.055970575928E+01  1.082369723217E+01  1.108845799474E+01
  1.135358012037E+01  1.161863231092E+01  1.188316000197E+01  1.214668559410E+01
  1.240870882040E+01  1.266870725961E+01  1.292613700444E+01  1.318043349444E+01
  1.343101252192E+01  1.367727141931E+01  1.391859043538E+01  1.415433430692E+01
  1.438385403154E+01  1.460648884588E+01  1.482156841246E+01  1.502841521634E+01
  1.522634717160E+01  1.541468043531E+01  1.559273242467E+01  1.575982503083E+01
  1.591528802024E+01  1.605846261203E+01  1.618870521692E+01  1.630539132048E+01
  1.640791949051E+01  1.649571548541E+01  1.656823643715E+01  1.662497507973E+01
  1.666546399064E+01  1.668927981046E+01  1.669604740257E+01  1.668544391267E+01
  1.665720268562E+01  1.661111699513E+01  1.654704354036E+01  1.646490566258E+01
  1.636469623448E+01  1.624648017476E+01  1.611039654166E+01  1.595666016022E+01
  1.578556274061E+01  1.559747344750E+01  1.539283888478E+01  1.517218246388E+01
  1.493610313009E+01  1.468527342705E+01  1.442043688677E+01  1.414240474031E+01
  1.385205195239E+01  1.355031259246E+01  1.323817456359E+01  1.291667372057E+01
  1.258688741798E+01  1.224992753903E+01  1.190693306500E+01  1.155906225461E+01
  1.120748451070E+01  1.085337201947E+01  1.049789125394E+01  1.014219443887E+01
  9.787411077998E+00  9.434639647418E+00  9.084939559091E+00  8.739323497872E+00
  8.398750232285E+00  8.064117994583E+00  7.736258518949E+00  7.415931818230E+00
  7.103821769455E+00  6.800532566690E+00  6.506586086802E+00  6.222420199585E+00
  5.948388038861E+00  5.684758235811E+00  5.431716100277E+00  5.189365720545E+00
  4.957732937364E+00  4.736769134140E+00  4.526355772641E+00  4.326309592402E+00
  4.136388382610E+00  3.956297227718E+00  3.785695122519E+00  3.624201848907E+00
  3.471405005108E+00  3.326867078628E+00  3.190132456414E+00  3.060734269633E+00
  2.938200975739E+00  2.822062586979E+00  2.711856462004E+00  2.607132585587E+00
  2.507458270531E+00  2.412422225715E+00  2.321637944770E+00  2.234746381311E+00
  2.151417889092E+00  2.071353418904E+00  1.994284978801E+00  1.919975379996E+00
  1.848217307616E+00  1.778831324600E+00  1.711661776036E+00  1.646572088035E+00
  1.583444058108E+00  1.522176845044E+00  1.462685854512E+00  1.404901494430E+00
  1.348767837363E+00  1.294241228508E+00  1.241288463351E+00  1.189883272233E+00
  1.140001963892E+00  1.091621785410E+00  1.044720526160E+00  9.992754640729E-01
  9.552627967276E-01  9.126572072504E-01  8.714318554087E-01  8.315594764558E-01
  7.930139704849E-01  7.557704489744E-01  7.198047004571E-01  6.850931193955E-01
  6.516125135976E-01  6.193399489098E-01  5.882526160889E-01  5.583277186490E-01
  5.295423804021E-01  5.018735713523E-01  4.752980505660E-01  4.497923246256E-01
  4.253326202665E-01  4.018948698139E-01  3.794547080596E-01  3.579874792566E-01
  3.374682529546E-01  3.178718474543E-01  2.991728597204E-01  2.813457006573E-01
  2.643646347228E-01  2.482038229261E-01  2.328373683326E-01  2.182393632689E-01
  2.043839375187E-01  1.912453067534E-01  1.787978208104E-01  1.670160110979E-01
  1.558746367790E-01  1.453487293248E-01  1.354136351076E-01  1.260450557605E-01
  1.172190860805E-01  1.089122493031E-01  1.011015296166E-01  9.376440182712E-02
  8.687885811976E-02  8.042343189581E-02  7.437721869196E-02  6.871989421521E-02
  6.343172954802E-02  5.849360359742E-02  5.388701287809E-02  4.959407873255E-02
  4.559755210262E-02  4.188081597503E-02  3.842788563062E-02  3.522340683124E-02
  3.225265208162E-02  2.950151510516E-02  2.695650367274E-02  2.460473092300E-02
  2.243390531053E-02  2.043231931606E-02  1.858883704903E-02  1.689288086926E-02
  1.533441714988E-02  1.390394129882E-02  1.259246215112E-02  1.139148583897E-02
  1.029299924069E-02  9.289453104501E-03  8.373744937093E-03  7.539201741306E-03
  6.779562681697E-03  6.088961751031E-03  5.461910505326E-03  4.893280929598E-03
  4.378288491222E-03  3.912475432642E-03  3.491694350204E-03  3.112092101043E-03
  2.770094075308E-03  2.462388866526E-03  2.185913368628E-03  1.937838324042E-03
  1.715554343352E-03  1.516658413311E-03  1.338940906472E-03  1.180373102362E-03
  1.039095227045E-03  9.134050149408E-04  8.017467940860E-04  7.027010934778E-04
  6.149747688151E-04  5.373916408234E-04  4.688836384066E-04  4.084824371212E-04
  3.553115819043E-04  3.085790816084E-04  2.675704616886E-04  2.316422603592E-04
  2.002159526665E-04  1.727722862204E-04  1.488460117643E-04  1.280209913542E-04
  1.099256666361E-04  9.422886955610E-05  8.063595780731E-05  6.888525738379E-05
  5.874479478798E-05  5.000930169561E-05  4.249747522382E-05  3.604947735854E-05
  3.052465757004E-05  2.579948316981E-05  2.176566253141E-05  1.832844690138E-05
  1.540509715913E-05  1.292350253671E-05  1.082093897523E-05  9.042955467905E-06
  7.542377413537E-06  6.278416674523E-06  5.215878694714E-06  4.324457680758E-06
  3.578111482324E-06  2.954508418619E-06  2.434538888421E-06  2.001885166224E-06
  1.642643326574E-06  1.344991750850E-06  1.098901154992E-06  8.958815324569E-07
  7.287618338420E-07  5.914986034045E-07  4.790101634765E-07  3.870332811656E-07
  3.119995685874E-07  2.509291591446E-07  2.013394691379E-07  1.611670974658E-07
  1.287011375794E-07  1.025263765099E-07  8.147503700146E-08  6.458588188078E-08
  5.106964609916E-08  4.027989267921E-08  3.168850534410E-08  2.486513411295E-08
  1.946000176787E-08  1.518955993744E-08  1.182455463331E-08  9.180123395946E-09
  7.107600655812E-09  5.487755339250E-09  4.225225916723E-09  3.243953714650E-09
  2.483446038327E-09  1.895727069798E-09  1.442857142081E-09  1.094920327608E-09
  8.283967415657E-10  6.248499315486E-10  4.698715418142E-10  3.522354027232E-10
  2.632215669607E-10  1.960778246551E-10  1.455920810720E-10  1.077538483429E-10
  7.948713839571E-11  5.844037873985E-11  4.282171842473E-11  3.127034450189E-11
  2.275627165951E-11  1.650256892952E-11  1.192520633193E-11  8.586690562118E-12
  6.160453909028E-12  4.403599243425E-12  3.136115035600E-12  2.225081907555E-12
  1.572715972671E-12  1.107350428374E-12  7.766588617804E-13  5.425823667490E-13
  3.775466758149E-13  2.616522192385E-13  1.805950852745E-13  1.241348829894E-13
  8.497018604338E-14  5.791649363755E-14  3.930780471210E-14  2.656279423281E-14
  1.787164356483E-14  1.197093434664E-14  7.982541640188E-15  5.298835196861E-15
  3.501240221288E-15  2.302722441545E-15  1.507353400384E-15  9.820140615531E-16
  6.366848006038E-16  4.107807974338E-16  2.637236495600E-16  1.684672238920E-16
  1.070737355339E-16  6.770568868146E-17  4.259074076923E-17  2.665175972972E-17
  1.658936462750E-17  1.027067432138E-17  6.324196315870E-18  3.872758390722E-18
  2.358388185059E-18  1.428107175180E-18  8.598592601352E-19  5.147366255703E-19
  3.063399072324E-19  1.812392097370E-19  1.065858729889E-19  6.230377424109E-20
  3.619628496652E-20  2.089851811988E-20  1.199042807991E-20  6.835745996053E-21
  0.000000000000E+00  0.000000000000E+00  0.000000000000E+00  0.000000000000E+00
  0.000000000000E+00  0.000000000000E+00  0.000000000000E+00  0.000000000000E+00
  0.000000000000E+00  0.000000000000E+00  0.000000000000E+00  0.000000000000E+00
  0.000000000000E+00  0.000000000000E+00  0.000000000000E+00  0.000000000000E+00
  0.000000000000E+00  0.000000000000E+00  0.000000000000E+00  0.000000000000E+00
  0.000000000000E+00  0.000000000000E+00  0.000000000000E+00  0.000000000000E+00
  0.000000000000E+00  0.000000000000E+00  0.000000000000E+00  0.000000000000E+00
  0.000000000000E+00  0.000000000000E+00  0.000000000000E+00  0.000000000000E+00
  0.000000000000E+00
</data>
</radfunc>
</valence-charge>
<pseudocore-charge matching-radius="0.924072629513"
 number-of-continuous-derivatives="4">
<annotation model-charge-form="Teter function with specified parameters" />
<radfunc>
<data npts="290">
  8.970483060477E+01  8.970014848761E+01  8.968615176079E+01  8.966279939470E+01
  8.962853143786E+01  8.958480329925E+01  8.952906660019E+01  8.946523530576E+01
  8.939345367022E+01  8.930973127941E+01  8.921534414419E+01  8.911273052591E+01
  8.898868647025E+01  8.885910057478E+01  8.872961215523E+01  8.858041574182E+01
  8.840855072921E+01  8.824558039599E+01  8.806230008874E+01  8.785622672263E+01
  8.762458654577E+01  8.741879811652E+01  8.719292683325E+01  8.694507028931E+01
  8.667315793105E+01  8.637493876438E+01  8.604796873534E+01  8.578228747075E+01
  8.549774968411E+01  8.519308511737E+01  8.486694840706E+01  8.451791629790E+01
  8.414448504142E+01  8.374506804492E+01  8.331799384705E+01  8.286150450868E+01
  8.237375452112E+01  8.185281034885E+01  8.148607845090E+01  8.110307670500E+01
  8.070316796000E+01  8.028569862280E+01  7.984999916087E+01  7.939538473602E+01
  7.892115598331E+01  7.842659994950E+01  7.791099120683E+01  7.737359315853E+01
  7.681365955360E+01  7.623043622924E+01  7.562316310023E+01  7.499107641524E+01
  7.433341130102E+01  7.364940461579E+01  7.293829813379E+01  7.219934208318E+01
  7.143179905953E+01  7.063494833697E+01  6.980809059854E+01  6.895055310644E+01
  6.806169533125E+01  6.714091505778E+01  6.618765498228E+01  6.520140981285E+01
  6.418173388083E+01  6.312824926622E+01  6.204065443434E+01  6.148399458278E+01
  6.091873337406E+01  6.034485874855E+01  5.976236521990E+01  5.917125420014E+01
  5.857153433109E+01  5.796322182155E+01  5.734634078976E+01  5.672092361083E+01
  5.608701126826E+01  5.544465370915E+01  5.479391020221E+01  5.413484969793E+01
  5.346755118997E+01  5.279210407683E+01  5.210860852286E+01  5.141717581747E+01
  5.071792873135E+01  5.001100186850E+01  4.929654201264E+01  4.857470846662E+01
  4.784567338325E+01  4.710962208593E+01  4.636675337738E+01  4.561727983454E+01
  4.486142808786E+01  4.409943908287E+01  4.333156832187E+01  4.255808608364E+01
  4.177927761877E+01  4.099544331825E+01  4.020689885288E+01  3.941397528082E+01
  3.861701912081E+01  3.781639238819E+01  3.701247259115E+01  3.620565268426E+01
  3.539634097644E+01  3.458496099070E+01  3.377195127251E+01  3.295776514416E+01
  3.214287040218E+01  3.132774895503E+01  3.051289639842E+01  2.969882152554E+01
  2.888604576972E+01  2.807510257722E+01  2.726653670792E+01  2.646090346183E+01
  2.565876782990E+01  2.486070356740E+01  2.406729218888E+01  2.327912188385E+01
  2.249678635273E+01  2.172088356300E+01  2.095201442617E+01  2.019078139636E+01
  1.943778699211E+01  1.869363224351E+01  1.795891506728E+01  1.723422857336E+01
  1.652015930696E+01  1.581728543101E+01  1.512617485453E+01  1.444738331346E+01
  1.378145241093E+01  1.312890762534E+01  1.249025629488E+01  1.186598558835E+01
  1.125656047286E+01  1.066242168983E+01  1.008398375144E+01  9.521632970560E+00
  8.975725537799E+00  8.446585660035E+00  7.934503775320E+00  7.439734859538E+00
  6.962496840609E+00  6.502969136241E+00  6.061291331388E+00  5.637562011522E+00
  5.231837767642E+00  4.844132388543E+00  4.474416255314E+00  4.122615952222E+00
  3.788614107161E+00  3.472249473588E+00  3.173317264410E+00  2.891569746581E+00
  2.626717103203E+00  2.378428567770E+00  2.146333832757E+00  1.930024732146E+00
  1.729057194657E+00  1.542953461441E+00  1.371204558866E+00  1.213273013752E+00
  1.068595795097E+00  9.365874629616E-01  8.166435018697E-01  7.081438128152E-01
  6.104563348612E-01  5.229407644197E-01  4.449523376672E-01  3.758456392695E-01
  3.149783987143E-01  2.617152341628E-01  2.154313028823E-01  1.755158170821E-01
  1.413753843942E-01  1.124371333566E-01  8.815158611028E-02  6.799524312038E-02
  5.147284808961E-02  3.811930531929E-02  2.750122656807E-02  1.921808989531E-02
  1.290299898252E-02  8.223037902821E-03  4.879223135353E-03  2.606061659585E-03
  1.170731058225E-03  3.719045343700E-04  3.825042848130E-05  2.664201582908E-05
  2.201188881844E-04  5.256458935340E-04  8.717192563404E-04  1.205871980392E-03
  1.492131825992E-03  1.708484966867E-03  1.844396824166E-03  1.898438545866E-03
  1.876063200453E-03  1.787570087041E-03  1.646288785977E-03  1.467006890653E-03
  1.264657024894E-03  1.053270051172E-03  8.451926319261E-04  6.505588538909E-04
  4.769977995412E-04  3.295520718011E-04  2.107766378010E-04  1.209831964484E-04
  5.859277099935E-05  2.055848296273E-05  2.821491954266E-06  7.658095520275E-07
  9.641942887553E-06  2.493483725410E-05  4.265803196386E-05  5.956292688317E-05
  7.325914932072E-05  8.224877384584E-05  8.588316300831E-05  8.425609687034E-05
  7.805035424095E-05  6.835681145545E-05  5.648536819554E-05  4.378565534267E-05
  3.149271506852E-05  2.060897014296E-05  1.182920998189E-05  5.510464644873E-06
  1.683981063547E-06  1.024973520754E-07  3.129996593541E-07  1.743401385793E-06
  3.791229087449E-06  5.903403261986E-06  7.638385140308E-06  8.705010784861E-06
  8.975843381763E-06  8.476388383398E-06  7.354588021621E-06  5.837262229924E-06
  4.181330195388E-06  2.627622637961E-06  1.363941712325E-06  5.019676378934E-07
  7.000313351899E-08  0.000000000000E+00  0.000000000000E+00  0.000000000000E+00
  0.000000000000E+00  0.000000000000E+00  0.000000000000E+00  0.000000000000E+00
  0.000000000000E+00  0.000000000000E+00  0.000000000000E+00  0.000000000000E+00
  0.000000000000E+00  0.000000000000E+00  0.000000000000E+00  0.000000000000E+00
  0.000000000000E+00  0.000000000000E+00  0.000000000000E+00  0.000000000000E+00
  0.000000000000E+00  0.000000000000E+00  0.000000000000E+00  0.000000000000E+00
  0.000000000000E+00  0.000000000000E+00  0.000000000000E+00  0.000000000000E+00
  0.000000000000E+00  0.000000000000E+00  0.000000000000E+00  0.000000000000E+00
  0.000000000000E+00  0.000000000000E+00  0.000000000000E+00  0.000000000000E+00
  0.000000000000E+00  0.000000000000E+00  0.000000000000E+00  0.000000000000E+00
  0.000000000000E+00  0.000000000000E+00
</data>
</radfunc>
</pseudocore-charge>
<semilocal-potentials set="scalar_relativistic">
<slps n="6" l="s" rc="2.20741261256" eref="-0.814827167753">
<radfunc>
<data npts="290">
 -3.752598914404E+00 -3.754192124854E+00 -3.758953179220E+00 -3.766891003533E+00
 -3.778526553297E+00 -3.793352457736E+00 -3.812214454285E+00 -3.833767191469E+00
 -3.857942618653E+00 -3.886057293919E+00 -3.917647452950E+00 -3.951864244836E+00
 -3.993051832807E+00 -4.035875870413E+00 -4.078461116537E+00 -4.127273453687E+00
 -4.183167173694E+00 -4.235839415220E+00 -4.294696719882E+00 -4.360398498952E+00
 -4.433657219490E+00 -4.498217679025E+00 -4.568518740470E+00 -4.644995592406E+00
 -4.728101476948E+00 -4.818305258903E+00 -4.916088174684E+00 -4.994693415249E+00
 -5.078044981551E+00 -5.166350160645E+00 -5.259813974959E+00 -5.358637217518E+00
 -5.463014230864E+00 -5.573130419368E+00 -5.689159487976E+00 -5.811260404722E+00
 -5.939574089521E+00 -6.074219837953E+00 -6.167548995189E+00 -6.263755413600E+00
 -6.362853408877E+00 -6.464850347409E+00 -6.569746064317E+00 -6.677532272824E+00
 -6.788191968527E+00 -6.901698832584E+00 -7.018016638184E+00 -7.137098665080E+00
 -7.258887127324E+00 -7.383312619675E+00 -7.510293588451E+00 -7.639735832867E+00
 -7.771532043104E+00 -7.905561381506E+00 -8.041689113418E+00 -8.179766294201E+00
 -8.319629518946E+00 -8.461100741318E+00 -8.603987167834E+00 -8.748081233665E+00
 -8.893160665848E+00 -9.038988639492E+00 -9.185314032331E+00 -9.331871782643E+00
 -9.478383355336E+00 -9.624557320767E+00 -9.770090050684E+00 -9.842517931530E+00
 -9.914666535607E+00 -9.986494863138E+00 -1.005796132800E+01 -1.012902379441E+01
 -1.019963961569E+01 -1.026976567533E+01 -1.033935843018E+01 -1.040837395596E+01
 -1.047676799509E+01 -1.054449600687E+01 -1.061151322013E+01 -1.067777468827E+01
 -1.074323534693E+01 -1.080785007420E+01 -1.087157375350E+01 -1.093436133915E+01
 -1.099616792482E+01 -1.105694881472E+01 -1.111665959780E+01 -1.117525622489E+01
 -1.123269508895E+01 -1.128893310842E+01 -1.134392781375E+01 -1.139763743717E+01
 -1.145002100578E+01 -1.150103843795E+01 -1.155065064309E+01 -1.159881962475E+01
 -1.164550858712E+01 -1.169068204484E+01 -1.173430593612E+01 -1.177634773899E+01
 -1.181677659068E+01 -1.185556340987E+01 -1.189268102168E+01 -1.192810428510E+01
 -1.196181022254E+01 -1.199377815113E+01 -1.202398981543E+01 -1.205242952079E+01
 -1.207908426697E+01 -1.210394388127E+01 -1.212700115028E+01 -1.214825194945E+01
 -1.216769536947E+01 -1.218533383822E+01 -1.220117323724E+01 -1.221522301116E+01
 -1.222749626869E+01 -1.223800987354E+01 -1.224678452354E+01 -1.225384481601E+01
 -1.225921929745E+01 -1.226294049545E+01 -1.226504493056E+01 -1.226557310590E+01
 -1.226456947209E+01 -1.226208236508E+01 -1.225816391451E+01 -1.225286992010E+01
 -1.224625969373E+01 -1.223839586483E+01 -1.222934414697E+01 -1.221917306355E+01
 -1.220795363073E+01 -1.219575899622E+01 -1.218266403245E+01 -1.216874488353E+01
 -1.215407846537E+01 -1.213874191924E+01 -1.212281201927E+01 -1.210636453533E+01
 -1.208947355309E+01 -1.207221075409E+01 -1.205464465913E+01 -1.203683983937E+01
 -1.201885610019E+01 -1.200074764380E+01 -1.198256221736E+01 -1.196434025449E+01
 -1.194611401848E+01 -1.192790675684E+01 -1.190973187711E+01 -1.189159215503E+01
 -1.187347898633E+01 -1.185537169445E+01 -1.183723690656E+01 -1.181902801058E+01