<?xml version="1.0" encoding="UTF-8" ?>
<psml version="1.1" energy_unit="hartree" length_unit="bohr"
 uuid="151269c0-23d3-11e8-5129-7a8dfedc6822"
 xmlns="http://esl.cecam.org/PSML/ns/1.1">
<provenance creator="ONCVPSP-3.3.0+psml-3.3.0-73 (scalar-relativistic)"
 date="2018-03-09">
<annotation action="semilocal-pseudopotential-generation"
 action-cont="projectors-generation" />
<input-file name="oncvpsp-input">
<![CDATA[# atsym z nc nv iexc psfile
Ru 44 6 4 -001012 upf
# n l f
1 0 2.0
2 0 2.0
2 1 6.0
3 0 2.0
3 1 6.0
3 2 10.0
4 0 2.0
4 1 6.0
4 2 7.0
5 0 1.0
# lmax
2
# l rc ep ncon nbas qcut
0 1.35 0.0 4 8 8.7
1 1.4 0.0 4 8 9.0
2 1.3 0.0 4 7 9.0
# lloc lpopt rc5 dvloc0
4 5 1.3 0.0
# l nproj debl
0 2 1.0
1 2 2.5
2 2 1.5
# icmod fcfact rcfact
3 7.0 1.24
# epsh1 epsh2 depsh
-12.0 12.0 0.02
# rlmax drl
6.0 0.01
 0
]]>
</input-file>
</provenance>
<pseudo-atom-spec atomic-label="Ru" atomic-number="44" z-pseudo="16"
 flavor="Hamann&apos;s oncvpsp" relativity="scalar" spin-dft="no"
 core-corrections="yes">
<annotation pseudo-energy="-95.0781468802" />
<exchange-correlation>
<annotation oncvpsp-xc-code="-1012" oncvpsp-xc-type="libxc-interface" />
<libxc-info number-of-functionals="2">
<functional name="Slater exchange (LDA)" type="exchange" id="1" />
<functional name="Perdew &amp; Wang (LDA)" type="correlation" id="12" />
</libxc-info>
</exchange-correlation>
<valence-configuration total-valence-charge="16">
<shell n="4" l="s" occupation="2" />
<shell n="4" l="p" occupation="6" />
<shell n="4" l="d" occupation="7" />
<shell n="5" l="s" occupation="1" />
</valence-configuration>
</pseudo-atom-spec>
<grid npts="457">
<annotation type="sampled from oncvpsp log grid"
 recipe="r(i:1..N) = r1*exp(a*(i-1)) + r=0; resampled"
 recipe-cont="r1: scale; a: step" scale="0.113636363636E-04"
 step="0.119285708653E-01" delta="0.500000000000E-02" rmax="44.1701864667" />
<grid-data>
  0.000000000000E+00  5.043815794335E-03  1.007462622473E-02  1.511354584145E-02
  2.012327525563E-02  2.524226985489E-02  3.055037921081E-02  3.567494135815E-02
  4.067699906245E-02  4.583044039319E-02  5.102448653004E-02  5.613358028248E-02
  6.175424878552E-02  6.713213057154E-02  7.297834632768E-02  7.839296543135E-02
  8.420932150924E-02  8.938460611162E-02  9.487795016675E-02  1.007089007765E-01
  1.068982063566E-01  1.121224214091E-01  1.176019487239E-01  1.233492656496E-01
  1.293774593142E-01  1.357002564259E-01  1.423320545300E-01  1.475177418904E-01
  1.528923631736E-01  1.584628019468E-01  1.642361925710E-01  1.702199293389E-01
  1.764216759446E-01  1.828493752993E-01  1.895112597039E-01  1.964158613929E-01
  2.035720234618E-01  2.109889111930E-01  2.160830274648E-01  2.213001360800E-01
  2.266432065655E-01  2.321152801448E-01  2.377194714686E-01  2.434589703877E-01
  2.493370437688E-01  2.553570373535E-01  2.615223776634E-01  2.678365739497E-01
  2.743032201911E-01  2.809259971394E-01  2.877086744144E-01  2.946551126494E-01
  3.017692656892E-01  3.090551828400E-01  3.165170111745E-01  3.241589978923E-01
  3.319854927375E-01  3.400009504741E-01  3.482099334224E-01  3.566171140549E-01
  3.652272776566E-01  3.740453250484E-01  3.830762753764E-01  3.923252689690E-01
  4.017975702630E-01  4.114985707995E-01  4.214337922928E-01  4.264909978004E-01
  4.316088897740E-01  4.367881964512E-01  4.420296548087E-01  4.473340106664E-01
  4.527020187944E-01  4.581344430199E-01  4.636320563361E-01  4.691956410122E-01
  4.748259887043E-01  4.805239005688E-01  4.862901873756E-01  4.921256696241E-01
  4.980311776596E-01  5.040075517915E-01  5.100556424130E-01  5.161763101220E-01
  5.223704258434E-01  5.286388709535E-01  5.349825374050E-01  5.414023278538E-01
  5.478991557881E-01  5.544739456575E-01  5.611276330054E-01  5.678611646015E-01
  5.746754985767E-01  5.815716045596E-01  5.885504638144E-01  5.956130693801E-01
  6.027604262127E-01  6.099935513272E-01  6.173134739432E-01  6.247212356305E-01
  6.322178904580E-01  6.398045051435E-01  6.474821592053E-01  6.552519451157E-01
  6.631149684571E-01  6.710723480786E-01  6.791252162555E-01  6.872747188506E-01
  6.955220154768E-01  7.038682796625E-01  7.123146990185E-01  7.208624754067E-01
  7.295128251116E-01  7.382669790129E-01  7.471261827611E-01  7.560916969542E-01
  7.651647973177E-01  7.743467748855E-01  7.836389361841E-01  7.930426034183E-01
  8.025591146593E-01  8.121898240353E-01  8.219361019237E-01  8.317993351468E-01
  8.417809271685E-01  8.518822982945E-01  8.621048858741E-01  8.724501445046E-01
  8.829195462386E-01  8.935145807935E-01  9.042367557630E-01  9.150875968322E-01
  9.260686479942E-01  9.371814717701E-01  9.484276494313E-01  9.598087812245E-01
  9.713264865992E-01  9.829824044384E-01  9.947781932916E-01  1.006715531611E+00
  1.018796117990E+00  1.031021671406E+00  1.043393931463E+00  1.055914658641E+00
  1.068585634544E+00  1.081408662159E+00  1.094385566105E+00  1.107518192898E+00
  1.120808411213E+00  1.134258112148E+00  1.147869209493E+00  1.161643640007E+00
  1.175583363687E+00  1.189690364052E+00  1.203966648420E+00  1.218414248201E+00
  1.233035219180E+00  1.247831641810E+00  1.262805621511E+00  1.277959288970E+00
  1.293294800437E+00  1.308814338043E+00  1.324520110099E+00  1.340414351420E+00
  1.356499323637E+00  1.372777315521E+00  1.389250643307E+00  1.405921651027E+00
  1.422792710839E+00  1.439866223369E+00  1.457144618050E+00  1.474630353466E+00
  1.492325917708E+00  1.510233828720E+00  1.528356634665E+00  1.546696914281E+00
  1.565257277252E+00  1.584040364579E+00  1.603048848954E+00  1.622285435142E+00
  1.641752860363E+00  1.661453894688E+00  1.681391341424E+00  1.701568037521E+00
  1.721986853971E+00  1.742650696219E+00  1.763562504574E+00  1.784725254629E+00
  1.806141957684E+00  1.827815661176E+00  1.849749449110E+00  1.871946442500E+00
  1.894409799810E+00  1.917142717408E+00  1.940148430016E+00  1.963430211177E+00
  1.986991373711E+00  2.010835270195E+00  2.034965293438E+00  2.059384876959E+00
  2.084097495482E+00  2.109106665428E+00  2.134415945413E+00  2.160028936758E+00
  2.185949283999E+00  2.212180675407E+00  2.238726843512E+00  2.265591565634E+00
  2.292778664422E+00  2.320292008395E+00  2.348135512496E+00  2.376313138646E+00
  2.404828896309E+00  2.433686843065E+00  2.462891085182E+00  2.492445778204E+00
  2.522355127543E+00  2.552623389073E+00  2.583254869742E+00  2.614253928179E+00
  2.645624975317E+00  2.677372475021E+00  2.709500944721E+00  2.742014956058E+00
  2.774919135530E+00  2.808218165157E+00  2.841916783139E+00  2.876019784536E+00
  2.910532021951E+00  2.945458406214E+00  2.980803907089E+00  3.016573553974E+00
  3.052772436622E+00  3.089405705861E+00  3.126478574331E+00  3.163996317223E+00
  3.201964273030E+00  3.240387844306E+00  3.279272498438E+00  3.318623768419E+00
  3.358447253640E+00  3.398748620684E+00  3.439533604132E+00  3.480808007382E+00
  3.522577703470E+00  3.564848635912E+00  3.607626819543E+00  3.650918341377E+00
  3.694729361474E+00  3.739066113812E+00  3.783934907177E+00  3.829342126064E+00
  3.875294231576E+00  3.921797762355E+00  3.968859335503E+00  4.016485647530E+00
  4.064683475300E+00  4.113459677003E+00  4.162821193128E+00  4.212775047445E+00
  4.263328348014E+00  4.314488288191E+00  4.366262147649E+00  4.418657293421E+00
  4.471681180942E+00  4.525341355113E+00  4.579645451374E+00  4.634601196791E+00
  4.690216411152E+00  4.746499008086E+00  4.803456996183E+00  4.861098480137E+00
  4.919431661899E+00  4.978464841842E+00  5.038206419944E+00  5.098664896983E+00
  5.159848875747E+00  5.221767062256E+00  5.284428267003E+00  5.347841406207E+00
  5.412015503082E+00  5.476959689119E+00  5.542683205388E+00  5.609195403853E+00
  5.676505748699E+00  5.744623817683E+00  5.813559303495E+00  5.883322015137E+00
  5.953921879319E+00  6.025368941871E+00  6.097673369173E+00  6.170845449603E+00
  6.244895594999E+00  6.319834342139E+00  6.395672354244E+00  6.472420422495E+00
  6.550089467565E+00  6.628690541176E+00  6.708234827670E+00  6.788733645602E+00
  6.870198449349E+00  6.952640830742E+00  7.036072520710E+00  7.120505390959E+00
  7.205951455650E+00  7.292422873118E+00  7.379931947596E+00  7.468491130967E+00
  7.558113024538E+00  7.648810380833E+00  7.740596105403E+00  7.833483258668E+00
  7.927485057772E+00  8.022614878465E+00  8.118886257007E+00  8.216312892091E+00
  8.314908646796E+00  8.414687550557E+00  8.515663801164E+00  8.617851766778E+00
  8.721265987979E+00  8.825921179835E+00  8.931832233993E+00  9.039014220801E+00
  9.147482391451E+00  9.257252180148E+00  9.368339206310E+00  9.480759276786E+00
  9.594528388107E+00  9.709662728764E+00  9.826178681509E+00  9.944092825688E+00
  1.006342193960E+01  1.018418300287E+01  1.030639319891E+01  1.043006991729E+01
  1.055523075630E+01  1.068189352538E+01  1.081007624768E+01  1.093979716265E+01
  1.107107472860E+01  1.120392762535E+01  1.133837475685E+01  1.147443525393E+01
  1.161212847698E+01  1.175147401870E+01  1.189249170693E+01  1.203520160741E+01
  1.217962402670E+01  1.232577951502E+01  1.247368886920E+01  1.262337313563E+01
  1.277485361326E+01  1.292815185662E+01  1.308328967890E+01  1.324028915504E+01
  1.339917262491E+01  1.355996269640E+01  1.372268224876E+01  1.388735443575E+01
  1.405400268898E+01  1.422265072124E+01  1.439332252990E+01  1.456604240026E+01
  1.474083490906E+01  1.491772492797E+01  1.509673762710E+01  1.527789847863E+01
  1.546123326037E+01  1.564676805950E+01  1.583452927621E+01  1.602454362753E+01
  1.621683815106E+01  1.641144020887E+01  1.660837749138E+01  1.680767802127E+01
  1.700937015753E+01  1.721348259942E+01  1.742004439061E+01  1.762908492330E+01
  1.784063394238E+01  1.805472154969E+01  1.827137820828E+01  1.849063474678E+01
  1.871252236374E+01  1.893707263211E+01  1.916431750369E+01  1.939428931374E+01
  1.962702078550E+01  1.986254503493E+01  2.010089557535E+01  2.034210632225E+01
  2.058621159812E+01  2.083324613730E+01  2.108324509094E+01  2.133624403203E+01
  2.159227896042E+01  2.185138630794E+01  2.211360294364E+01  2.237896617896E+01
  2.264751377311E+01  2.291928393839E+01  2.319431534565E+01  2.347264712980E+01
  2.375431889535E+01  2.403937072210E+01  2.432784317076E+01  2.461977728881E+01
  2.491521461628E+01  2.521419719167E+01  2.551676755797E+01  2.582296876867E+01
  2.613284439389E+01  2.644643852662E+01  2.676379578894E+01  2.708496133841E+01
  2.740998087447E+01  2.773890064496E+01  2.807176745270E+01  2.840862866213E+01
  2.874953220608E+01  2.909452659255E+01  2.944366091166E+01  2.979698484260E+01
  3.015454866071E+01  3.051640324464E+01  3.088260008358E+01  3.125319128458E+01
  3.162822958000E+01  3.200776833496E+01  3.239186155498E+01  3.278056389364E+01
  3.317393066036E+01  3.357201782828E+01  3.397488204222E+01  3.438258062673E+01
  3.479517159425E+01  3.521271365338E+01  3.563526621722E+01  3.606288941183E+01
  3.649564408477E+01  3.693359181379E+01  3.737679491555E+01  3.782531645454E+01
  3.827922025199E+01  3.873857089502E+01  3.920343374576E+01  3.967387495071E+01
  4.014996145012E+01  4.063176098752E+01  4.111934211937E+01  4.161277422480E+01
  4.211212751550E+01  4.261747304568E+01  4.312888272223E+01  4.364642931490E+01
  4.417018646668E+01
</grid-data>
</grid>
<valence-charge total-charge="16" is-unscreening-charge="yes"
 rescaled-to-z-pseudo="no">
<radfunc>
<data npts="457">
  1.306148275461E-01  1.315220506649E-01  1.342353453379E-01  1.387663892496E-01
  1.450751013291E-01  1.533863304893E-01  1.640051173121E-01  1.762006172525E-01
  1.899590890589E-01  2.060649729911E-01  2.242980923642E-01  2.442110508108E-01
  2.684085025490E-01  2.938335028426E-01  3.240266811030E-01  3.543960635129E-01
  3.896327394095E-01  4.232947347479E-01  4.614397481648E-01  5.046904380966E-01
  5.537613577262E-01  5.977563033271E-01  6.464753336519E-01  7.004511476654E-01
  7.602799837239E-01  8.266293917729E-01  9.002468561884E-01  9.607294294329E-01
  1.026158435568E+00  1.096957522677E+00  1.173587358314E+00  1.256548555027E+00
  1.346384698915E+00  1.443685444078E+00  1.549089621536E+00  1.663288293708E+00
  1.787027664059E+00  1.921111725584E+00  2.016672303335E+00  2.117484450469E+00
  2.223831688048E+00  2.336009914397E+00  2.454327346338E+00  2.579104335337E+00
  2.710673035900E+00  2.849376900805E+00  2.995569974896E+00  3.149615956110E+00
  3.311886989251E+00  3.482762154781E+00  3.662625611623E+00  3.851864349766E+00
  4.050865505377E+00  4.260013188325E+00  4.479684769625E+00  4.710246574492E+00
  4.952048925682E+00  5.205420481840E+00  5.470661816915E+00  5.748038189777E+00
  6.037771458224E+00  6.340031099137E+00  6.654924307026E+00  6.982485157152E+00
  7.322662837259E+00  7.675308974382E+00  8.040164110613E+00  8.227055095484E+00
  8.416843414643E+00  8.609458925087E+00  8.804821754885E+00  9.002841814323E+00
  9.203418305125E+00  9.406439230035E+00  9.611780905330E+00  9.819307479063E+00
  1.002887045813E+01  1.024030824753E+01  1.045344570542E+01  1.066809371798E+01
  1.088404879828E+01  1.110109271364E+01  1.131899214637E+01  1.153749839293E+01
  1.175634710697E+01  1.197525809172E+01  1.219393514785E+01  1.241206598269E+01
  1.262932218714E+01  1.284535928681E+01  1.305981687381E+01  1.327231882587E+01
  1.348247361936E+01  1.368987474280E+01  1.389410121729E+01  1.409471822996E+01
  1.429127788662E+01  1.448332008878E+01  1.467037354043E+01  1.485195688874E+01
  1.502758000257E+01  1.519674539158E+01  1.535894976794E+01  1.551368575137E+01
  1.566044371719E+01  1.579871378572E+01  1.592798794960E+01  1.604776233455E+01
  1.615753958681E+01  1.625683137913E+01  1.634516102502E+01  1.642206618924E+01
  1.648710168023E+01  1.653984230842E+01  1.657988579220E+01  1.660685569126E+01
  1.662040434528E+01  1.662021579396E+01  1.660600865290E+01  1.657753891800E+01
  1.653460267027E+01  1.647703865157E+01  1.640473068124E+01  1.631760988330E+01
  1.621565669395E+01  1.609890261942E+01  1.596743171525E+01  1.582138175961E+01
  1.566094509461E+01  1.548636911249E+01  1.529795636590E+01  1.509606428486E+01
  1.488110448676E+01  1.465354166957E+01  1.441389208295E+01  1.416272157667E+01
  1.390064323039E+01  1.362831457399E+01  1.334643441275E+01  1.305573927655E+01
  1.275699951733E+01  1.245101508359E+01  1.213861100539E+01  1.182063262706E+01
  1.149794062886E+01  1.117140588147E+01  1.084190418026E+01  1.051031090782E+01
  1.017749567480E+01  9.844316989542E+00  9.511617006981E+00  9.180216406507E+00
  8.850909446920E+00  8.524459244525E+00  8.201593317608E+00  7.882999437201E+00
  7.569321820225E+00  7.261157696901E+00  6.959054279873E+00  6.663506157906E+00
  6.374953132507E+00  6.093778511481E+00  5.820307725595E+00  5.554806827396E+00
  5.297481369385E+00  5.048477842007E+00  4.807887938102E+00  4.575753413188E+00
  4.352069338953E+00  4.136793827632E+00  3.929857835120E+00  3.731168004101E+00
  3.540608990406E+00  3.358045727482E+00  3.183325618724E+00  3.016280649040E+00
  2.856729408375E+00  2.704479021220E+00  2.559326977375E+00  2.421062860389E+00
  2.289469971216E+00  2.164326845627E+00  2.045408664839E+00  1.932488559708E+00
  1.825338809569E+00  1.723731937512E+00  1.627441704484E+00  1.536244005151E+00
  1.449917668882E+00  1.368245169632E+00  1.291013248786E+00  1.218013455301E+00
  1.149042607694E+00  1.083903182336E+00  1.022403633165E+00  9.643586471970E-01
  9.095893407893E-01  8.579234013298E-01  8.091951789802E-01  7.632457329996E-01
  7.199228370341E-01  6.790809476025E-01  6.405811398365E-01  6.042910143387E-01
  5.700845788276E-01  5.378421080243E-01  5.074499850247E-01  4.788005271828E-01
  4.517917993101E-01  4.263274167825E-01  4.023163409294E-01  3.796726688716E-01
  3.583154197703E-01  3.381683192535E-01  3.191595835969E-01  3.012217050593E-01
  2.842912395972E-01  2.683085980287E-01  2.532178415617E-01  2.389664824642E-01
  2.255052905231E-01  2.127881058180E-01  2.007716582292E-01  1.894153939966E-01
  1.786813095570E-01  1.685337928077E-01  1.589394718698E-01  1.498670713623E-01
  1.412872761411E-01  1.331726024100E-01  1.254972760668E-01  1.182371181148E-01
  1.113694369378E-01  1.048729272166E-01  9.872757524230E-02  9.291457036808E-02
  8.741622233356E-02  8.221588418412E-02  7.729788050754E-02  7.264744070764E-02
  6.825063703651E-02  6.409432711018E-02  6.016610063828E-02  5.645423010456E-02
  5.294762514342E-02  4.963579036646E-02  4.650878640270E-02  4.355719392657E-02
  4.077208045822E-02  3.814496973179E-02  3.566781343813E-02  3.333296515952E-02
  3.113315632490E-02  2.906147402458E-02  2.711134053404E-02  2.527649440646E-02
  2.355097300327E-02  2.192909634147E-02  2.040545214534E-02  1.897488199852E-02
  1.763246850103E-02  1.637352334189E-02  1.519357620726E-02  1.408836444902E-02
  1.305382344555E-02  1.208607759227E-02  1.118143186495E-02  1.033636390369E-02
  9.547516570197E-03  8.811690935353E-03  8.125839657906E-03  7.487060718883E-03
  6.892591479652E-03  6.339803034657E-03  5.826194832703E-03  5.349389543280E-03
  4.907128146792E-03  4.497265229766E-03  4.117764468093E-03  3.766694283217E-03
  3.442223657818E-03  3.142618099105E-03  2.866235739168E-03  2.611523563163E-03
  2.377013757189E-03  2.161320168801E-03  1.963134874013E-03  1.781224845504E-03
  1.614428717486E-03  1.461653643392E-03  1.321872243122E-03  1.194119637128E-03
  1.077490565098E-03  9.711365873733E-04  8.742633676213E-04  7.861280355490E-04
  7.060366287081E-04  6.333416126333E-04  5.674394787146E-04  5.077684193230E-04
  4.538060797901E-04  4.050673868898E-04  3.611024534924E-04  3.214945590511E-04
  2.858582055518E-04  2.538372485061E-04  2.251031024961E-04  1.993530207004E-04
  1.763084477296E-04  1.557134449999E-04  1.373331877577E-04  1.209525327532E-04
  1.063746554443E-04  9.341975548992E-05  8.192382917828E-05  7.173750732108E-05
  6.272495703652E-05  5.476284574298E-05  4.773936559092E-05  4.155331647567E-05
  3.611324569810E-05  3.133664227461E-05  2.714918384326E-05  2.348403406843E-05
  2.028118841393E-05  1.748686613211E-05  1.505294630553E-05  1.293644577683E-05
  1.109903681232E-05  9.506602363155E-06  8.128826816718E-06  6.938820166747E-06
  5.912773575002E-06  5.029644348235E-06  4.270868411279E-06  3.620098419543E-06
  3.062965721162E-06  2.586864449821E-06  2.180756102970E-06  1.834993036189E-06
  1.541159381952E-06  1.291927979477E-06  1.080931981011E-06  9.026498782337E-07
  7.523027699900E-07  6.257627687294E-07  5.194715175070E-07  4.303678617688E-07
  3.558237901206E-07  2.935878255999E-07  2.417351134284E-07  1.986235126603E-07
  1.628550574438E-07  1.332422086982E-07  1.087783688510E-07  8.861218086437E-08
  7.202517813799E-08  5.841239406465E-08  4.726557909876E-08  3.815870928544E-08
  3.073550338962E-08  2.469869618985E-08  1.980084329211E-08  1.583645811619E-08
  1.263530465632E-08  1.005669036741E-08  7.984622225912E-09  6.323705808231E-09
  4.995682263714E-09  3.936511474095E-09  3.093921623041E-09  2.425355977387E-09
  1.896257029616E-09  1.478636385575E-09  1.149886011960E-09  8.917927867281E-10
  6.897238173450E-10  5.319547940669E-10  4.091178087891E-10  3.137486678412E-10
  2.399168266646E-10  1.829237322443E-10  1.390576623453E-10  1.053949712229E-10
  7.695522103082E-11  5.803056634069E-11  4.362360726854E-11  3.269012897517E-11
  2.441889556402E-11  1.818166027098E-11  1.349344340495E-11  9.981071133549E-12
  7.358338564578E-12  5.406467106971E-12  3.958778907313E-12  2.888718924116E-12
  2.100525336829E-12  1.521987804159E-12  1.098845939881E-12  7.904717844007E-13
  5.665538182074E-13  4.045593724829E-13  2.877997975200E-13  2.039606563599E-13
  1.439893430760E-13  1.012563846533E-13  7.092550463898E-14  4.948231209284E-14
  3.438304940857E-14  2.379385024869E-14  1.639795874367E-14  1.125377252345E-14
  7.690738271313E-15  5.233322501046E-15  3.545718661194E-15  2.391805284129E-15
  1.606272899829E-15  1.073894744132E-15  7.147095784630E-16  4.734774841679E-16
  3.122101060101E-16  2.049029639075E-16  1.338377568688E-16  8.699881782051E-17
  5.627651734186E-17  3.622386588396E-17  2.320012666177E-17  1.478385963840E-17
  9.372616485131E-18  5.911296049416E-18  3.708740137777E-18  2.314539440405E-18
  1.436711538213E-18  8.869790810313E-19  5.445874534009E-19  3.325091894449E-19
  2.018795848135E-19  1.218721564959E-19  7.314930238350E-20  4.364951060336E-20
  2.589295399463E-20  1.526813585991E-20  8.948730249992E-21  5.212861818139E-21
  3.017855393235E-21  1.736183728382E-21  9.925107002942E-22  5.637463748422E-22
  3.181322562955E-22  1.783498621957E-22  9.932185202612E-23  0.000000000000E+00
  0.000000000000E+00  0.000000000000E+00  0.000000000000E+00  0.000000000000E+00
  0.000000000000E+00
</data>
</radfunc>
</valence-charge>
<pseudocore-charge matching-radius="0.687274718851"
 number-of-continuous-derivatives="4">
<annotation model-charge-form="Teter function with specified parameters" />
<radfunc>
<data npts="290">
  1.172628281236E+02  1.172498513487E+02  1.172110627990E+02  1.171463614890E+02
  1.170564279802E+02  1.169382164784E+02  1.167876257275E+02  1.166152802191E+02
  1.164216158810E+02  1.161959327135E+02  1.159417558117E+02  1.156657314680E+02
  1.153324859464E+02  1.149848495648E+02  1.145752936670E+02  1.141668542434E+02
  1.136972523959E+02  1.132528394857E+02  1.127540717877E+02  1.121945784159E+02
  1.115673161310E+02  1.110115193556E+02  1.104030653077E+02  1.097372936547E+02
  1.090092004791E+02  1.082134279162E+02  1.073442572240E+02  1.066405665712E+02
  1.058894766556E+02  1.050881766728E+02  1.042337479351E+02  1.033231695307E+02
  1.023533260937E+02  1.013210180139E+02  1.002229744430E+02  9.905586948846E+01
  9.781634201573E+01  9.650101950531E+01  9.558037075889E+01  9.462355964480E+01
  9.362961768971E+01  9.259759676893E+01  9.152657515084E+01  9.041566410986E+01
  8.926401513334E+01  8.807082774605E+01  8.683535797247E+01  8.555692745357E+01
  8.423493322941E+01  8.286885819349E+01  8.145828221696E+01  8.000289393263E+01
  7.850250315834E+01  7.695705392764E+01  7.536663808205E+01  7.373150936384E+01
  7.205209793078E+01  7.032902519476E+01  6.856311886461E+01  6.675542804958E+01
  6.490723825416E+01  6.302008606707E+01  6.109577331774E+01  5.913638044248E+01
  5.714427877081E+01  5.512214140943E+01  5.307295236982E+01  5.203923275689E+01
  5.100001355370E+01  4.995575789632E+01  4.890694918240E+01  4.785409103861E+01
  4.679770723059E+01  4.573834151140E+01  4.467655740494E+01  4.361293792052E+01
  4.254808519482E+01  4.148262005765E+01  4.041718151784E+01  3.935242616578E+01
  3.828902748930E+01  3.722767509965E+01  3.616907386460E+01  3.511394294598E+01
  3.406301473914E+01  3.301703371229E+01  3.197675514398E+01  3.094294375734E+01
  2.991637225041E+01  2.889781972206E+01  2.788806999401E+01  2.688790982968E+01
  2.589812705161E+01  2.491950855975E+01  2.395283825377E+01  2.299889486343E+01
  2.205844969184E+01  2.113226427750E+01  2.022108798198E+01  1.932565551092E+01
  1.844668437747E+01  1.758487231804E+01  1.674089467140E+01  1.591540173343E+01
  1.510901610068E+01  1.432233001730E+01  1.355590274055E+01  1.281025794157E+01
  1.208588115870E+01  1.138321732172E+01  1.070266836616E+01  1.004459095748E+01
  9.409294345439E+00  8.797038369565E+00  8.208031636728E+00  7.642429891890E+00
  7.100334603051E+00  6.581791780947E+00  6.086791053469E+00  5.615265013872E+00
  5.167088860673E+00  4.742080345677E+00  4.340000044814E+00  3.960551964355E+00
  3.603384492743E+00  3.268091705512E+00  2.954215027818E+00  2.661245255776E+00
  2.388624934237E+00  2.135751084845E+00  1.901978274179E+00  1.686622007593E+00
  1.488962430077E+00  1.308248311037E+00  1.143701285572E+00  9.945203204712E-01
  8.598863689929E-01  7.389671745765E-01  6.309221799748E-01  5.349074951015E-01
  4.500808741480E-01  3.756066503840E-01  3.106605755872E-01  2.544345103256E-01
  2.061409114302E-01  1.650170639908E-01  1.303290071507E-01  1.013751058830E-01
  7.748922482966E-02  5.804346515577E-02  4.245043118631E-02  3.016500029163E-02
  2.068557698413E-02  1.355482036589E-02  8.359842784456E-03  4.731886641003E-03
  2.345495558568E-03  9.172053434306E-04  2.037891283900E-04  9.953146757206E-08
  1.365583512375E-04  4.763510089107E-04  9.123884079814E-04  1.364102906978E-03
  1.774147512999E-03  2.105068067050E-03  2.336017019696E-03  2.459574357133E-03
  2.478736366586E-03  2.404126326330E-03  2.251473039227E-03  2.039393636756E-03
  1.787506563746E-03  1.514889468622E-03  1.238885269804E-03  9.742483754497E-04
  7.326123415943E-04  5.222505952231E-04  3.480936259203E-04  2.119596124266E-04
  1.129510753475E-04  4.796801871476E-05  1.228821783873E-05  1.677876283011E-07
  5.419761003063E-06  2.193483901088E-05  4.411635275216E-05  6.721032318516E-05
  8.752077667410E-05  1.025096000084E-04  1.107886338457E-04  1.120188896003E-04
  1.067372978589E-04  9.613494175552E-05  8.181212827720E-05  6.553489989366E-05
  4.901485245375E-05  3.372972633237E-05  2.079663489545E-05  1.090354377713E-05
  4.298321733507E-06  8.289479064417E-07  2.381573242589E-08  1.197936411017E-06
  3.569467853026E-06  6.371439657076E-06  8.945671547198E-06  1.080936534382E-05
  1.168921132780E-05  1.152251578975E-05  1.042922900805E-05  8.662283376223E-06
  6.545913598544E-06  4.412378900150E-06  2.546710837072E-06  1.146960688813E-06
  3.043034034509E-07  3.794124982375E-09  0.000000000000E+00  0.000000000000E+00
  0.000000000000E+00  0.000000000000E+00  0.000000000000E+00  0.000000000000E+00
  0.000000000000E+00  0.000000000000E+00  0.000000000000E+00  0.000000000000E+00
  0.000000000000E+00  0.000000000000E+00  0.000000000000E+00  0.000000000000E+00
  0.000000000000E+00  0.000000000000E+00  0.000000000000E+00  0.000000000000E+00
  0.000000000000E+00  0.000000000000E+00  0.000000000000E+00  0.000000000000E+00
  0.000000000000E+00  0.000000000000E+00  0.000000000000E+00  0.000000000000E+00
  0.000000000000E+00  0.000000000000E+00  0.000000000000E+00  0.000000000000E+00
  0.000000000000E+00  0.000000000000E+00  0.000000000000E+00  0.000000000000E+00
  0.000000000000E+00  0.000000000000E+00  0.000000000000E+00  0.000000000000E+00
  0.000000000000E+00  0.000000000000E+00  0.000000000000E+00  0.000000000000E+00
  0.000000000000E+00  0.000000000000E+00  0.000000000000E+00  0.000000000000E+00
  0.000000000000E+00  0.000000000000E+00  0.000000000000E+00  0.000000000000E+00
  0.000000000000E+00  0.000000000000E+00  0.000000000000E+00  0.000000000000E+00
  0.000000000000E+00  0.000000000000E+00  0.000000000000E+00  0.000000000000E+00
  0.000000000000E+00  0.000000000000E+00  0.000000000000E+00  0.000000000000E+00
  0.000000000000E+00  0.000000000000E+00  0.000000000000E+00  0.000000000000E+00
  0.000000000000E+00  0.000000000000E+00  0.000000000000E+00  0.000000000000E+00
  0.000000000000E+00  0.000000000000E+00
</data>
</radfunc>
</pseudocore-charge>
<semilocal-potentials set="scalar_relativistic">
<slps n="4" l="s" rc="1.35649932364" eref="-2.80915812924">
<radfunc>
<data npts="290">
  5.626181612429E+01  5.620848228432E+01  5.604943826481E+01  5.578539083156E+01
  5.542093585847E+01  5.494636799429E+01  5.434906916435E+01  5.367526637909E+01
  5.293029216056E+01  5.207798882694E+01  5.113789747257E+01  5.014001770252E+01
  4.896604591691E+01  4.777583189233E+01  4.641675936177E+01  4.510569735748E+01
  4.365022132782E+01  4.232134494598E+01  4.088313230119E+01  3.933303443222E+01
  3.766980562174E+01  3.625790767822E+01  3.477470978233E+01  3.322194453111E+01
  3.160217683834E+01  2.991883813784E+01  2.817624156143E+01  2.683349498603E+01
  2.546281964261E+01  2.406697374954E+01  2.264895408147E+01  2.121197477972E+01
  1.975944208896E+01  1.829492541408E+01  1.682212521849E+01  1.534483839846E+01
  1.386692186275E+01  1.239225511697E+01  1.141285954060E+01  1.043776068005E+01
  9.468077283933E+00  8.504908600634E+00  7.549330079572E+00  6.602389339216E+00
  5.665102438644E+00  4.738450485034E+00  3.823376604617E+00  2.920783299543E+00
  2.031530207800E+00  1.156432277974E+00  2.962583653028E-01 -5.482697497203E-01
 -1.376477923965E+00 -2.187739803955E+00 -2.981476580695E+00 -3.757156363859E+00
 -4.514293195771E+00 -5.252445728710E+00 -5.971215591847E+00 -6.670245476330E+00
 -7.349216969000E+00 -8.007848166693E+00 -8.645891104304E+00 -9.263129030702E+00
 -9.859373567271E+00 -1.043446178436E+01 -1.098825323130E+01 -1.125712418788E+01
 -1.152062695590E+01 -1.177874897808E+01 -1.203147854956E+01 -1.227880472946E+01
 -1.252071725439E+01 -1.275720645394E+01 -1.298826316868E+01 -1.321387867071E+01
 -1.343404458732E+01 -1.364875282778E+01 -1.385799551372E+01 -1.406176491329E+01
 -1.426005337945E+01 -1.445285329253E+01 -1.464015700754E+01 -1.482195680626E+01
 -1.499824485449E+01 -1.516901316469E+01 -1.533425356422E+01 -1.549395766939E+01
 -1.564811686548E+01 -1.579672229298E+01 -1.593976484017E+01 -1.607723514205E+01
 -1.620912358594E+01 -1.633542032351E+01 -1.645611528956E+01 -1.657119822721E+01
 -1.668065871971E+01 -1.678448622852E+01 -1.688267013759E+01 -1.697519980352E+01
 -1.706206461142E+01 -1.714325403595E+01 -1.721875770718E+01 -1.728856548087E+01
 -1.735266751241E+01 -1.741105433406E+01 -1.746371693465E+01 -1.751064684114E+01
 -1.755183620136E+01 -1.758727786710E+01 -1.761696547702E+01 -1.764089353846E+01
 -1.765905750782E+01 -1.767145386880E+01 -1.767808020816E+01 -1.767893528887E+01
 -1.767401912064E+01 -1.766333302807E+01 -1.764687971716E+01 -1.762466334125E+01
 -1.759668956772E+01 -1.756296564781E+01 -1.752350049207E+01 -1.747830475493E+01
 -1.742739093263E+01 -1.737077347961E+01 -1.730846894956E+01 -1.724049616813E+01
 -1.716687644581E+01 -1.708763384045E+01 -1.700279548024E+01 -1.691239195941E+01
 -1.681645781994E+01 -1.671503213439E+01 -1.660815920564E+01 -1.649588940083E+01
 -1.637828013776E+01 -1.625539704219E+01 -1.612731529554E+01 -1.599412119144E+01
 -1.585591391925E+01 -1.571280759092E+01 -1.556493352448E+01 -1.541244279410E+01
 -1.525550905084E+01 -1.509433161140E+01 -1.492913880315E+01 -1.476019154255E+01
 -1.458778711041E+01 -1.441226307135E+01 -1.423400126605E+01 -1.405343178311E+01
 -1.387103679349E+01 -1.368735410422E+01 -1.350298026027E+01 -1.331857299513E+01