<?xml version="1.0" encoding="UTF-8" ?>
<psml version="1.1" energy_unit="hartree" length_unit="bohr"
 uuid="549bfa20-23d3-11e8-579e-c63affa4996e"
 xmlns="http://esl.cecam.org/PSML/ns/1.1">
<provenance creator="ONCVPSP-3.3.0+psml-3.3.0-73 (scalar-relativistic)"
 date="2018-03-09">
<annotation action="semilocal-pseudopotential-generation"
 action-cont="projectors-generation" />
<input-file name="oncvpsp-input">
<![CDATA[# atsym z nc nv iexc psfile
Sb 51 8 3 -001012 upf
# n l f
1 0 2.0
2 0 2.0
2 1 6.0
3 0 2.0
3 1 6.0
3 2 10.0
4 0 2.0
4 1 6.0
4 2 10.0
5 0 2.0
5 1 3.0
# lmax
2
# l rc ep ncon nbas qcut
0 1.9 0.0 4 7 3.2
1 2.1 0.0 4 7 4.6
2 1.8 0.0 4 7 9.2
# lloc lpopt rc5 dvloc0
4 5 1.6 0.0
# l nproj debl
0 2 1.0
1 2 3.0
2 2 1.6
# icmod fcfact rcfact
3 5.0 1.41
# epsh1 epsh2 depsh
-12.0 12.0 0.02
# rlmax drl
6.0 0.01
 0
]]>
</input-file>
</provenance>
<pseudo-atom-spec atomic-label="Sb" atomic-number="51" z-pseudo="15"
 flavor="Hamann&apos;s oncvpsp" relativity="scalar" spin-dft="no"
 core-corrections="yes">
<annotation pseudo-energy="-80.2693916116" />
<exchange-correlation>
<annotation oncvpsp-xc-code="-1012" oncvpsp-xc-type="libxc-interface" />
<libxc-info number-of-functionals="2">
<functional name="Slater exchange (LDA)" type="exchange" id="1" />
<functional name="Perdew &amp; Wang (LDA)" type="correlation" id="12" />
</libxc-info>
</exchange-correlation>
<valence-configuration total-valence-charge="15">
<shell n="4" l="d" occupation="10" />
<shell n="5" l="s" occupation="2" />
<shell n="5" l="p" occupation="3" />
</valence-configuration>
</pseudo-atom-spec>
<grid npts="457">
<annotation type="sampled from oncvpsp log grid"
 recipe="r(i:1..N) = r1*exp(a*(i-1)) + r=0; resampled"
 recipe-cont="r1: scale; a: step" scale="0.980392156863E-05"
 step="0.119285708653E-01" delta="0.500000000000E-02" rmax="43.9721684583" />
<grid-data>
  0.000000000000E+00  5.021204018428E-03  1.002946097687E-02  1.504579076758E-02
  2.027345795207E-02  2.543065629312E-02  3.077838077958E-02  3.594118822007E-02
  4.098057695047E-02  4.617247910357E-02  5.140528910190E-02  5.655251270478E-02
  6.221512900910E-02  6.763314664665E-02  7.265117934131E-02  7.804152433212E-02
  8.383180528246E-02  8.898388872515E-02  9.445260573801E-02  1.002574157919E-01
  1.064189742860E-01  1.116197688201E-01  1.170747310341E-01  1.227962823396E-01
  1.287974511941E-01  1.350919027679E-01  1.416939700613E-01  1.468564096257E-01
  1.522069361091E-01  1.577524022190E-01  1.634999103328E-01  1.694568215939E-01
  1.756307653396E-01  1.820296488724E-01  1.886616675873E-01  1.955353154683E-01
  2.026593959664E-01  2.100430332757E-01  2.151143122711E-01  2.203080322266E-01
  2.256271493567E-01  2.310746912507E-01  2.366537585963E-01  2.423675269438E-01
  2.482192485144E-01  2.542122540505E-01  2.603499547123E-01  2.666358440189E-01
  2.730734998369E-01  2.796665864169E-01  2.864188564794E-01  2.933341533502E-01
  3.004164131487E-01  3.076696670278E-01  3.150980434685E-01  3.227057706300E-01
  3.304971787561E-01  3.384767026400E-01  3.466488841485E-01  3.550183748074E-01
  3.635899384487E-01  3.723684539226E-01  3.813589178741E-01  3.905664475873E-01
  3.999962838978E-01  4.096537941763E-01  4.195444753829E-01  4.245790090875E-01
  4.296739571965E-01  4.348300446829E-01  4.400480052191E-01  4.453285812817E-01
  4.506725242571E-01  4.560805945481E-01  4.615535616827E-01  4.670922044229E-01
  4.726973108760E-01  4.783696786065E-01  4.841101147498E-01  4.899194361268E-01
  4.957984693603E-01  5.017480509926E-01  5.077690276045E-01  5.138622559358E-01
  5.200286030070E-01  5.262689462431E-01  5.325841735980E-01  5.389751836812E-01
  5.454428858854E-01  5.519882005160E-01  5.586120589222E-01  5.653154036293E-01
  5.720991884728E-01  5.789643787345E-01  5.859119512793E-01  5.929428946946E-01
  6.000582094310E-01  6.072589079442E-01  6.145460148395E-01  6.219205670176E-01
  6.293836138218E-01  6.369362171876E-01  6.445794517939E-01  6.523144052154E-01
  6.601421780780E-01  6.680638842149E-01  6.760806508255E-01  6.841936186354E-01
  6.924039420590E-01  7.007127893637E-01  7.091213428361E-01  7.176307989501E-01
  7.262423685375E-01  7.349572769600E-01  7.437767642835E-01  7.527020854549E-01
  7.617345104804E-01  7.708753246061E-01  7.801258285014E-01  7.894873384434E-01
  7.989611865048E-01  8.085487207428E-01  8.182513053917E-01  8.280703210564E-01
  8.380071649091E-01  8.480632508880E-01  8.582400098987E-01  8.685388900175E-01
  8.789613566977E-01  8.895088929780E-01  9.001829996938E-01  9.109851956901E-01
  9.219170180384E-01  9.329800222548E-01  9.441757825219E-01  9.555058919122E-01
  9.669719626151E-01  9.785756261665E-01  9.903185336805E-01  1.002202356085E+00
  1.014228784358E+00  1.026399529770E+00  1.038716324127E+00  1.051180920017E+00
  1.063795091057E+00  1.076560632150E+00  1.089479359735E+00  1.102553112052E+00
  1.115783749397E+00  1.129173154390E+00  1.142723232242E+00  1.156435911029E+00
  1.170313141962E+00  1.184356899665E+00  1.198569182461E+00  1.212952012651E+00
  1.227507436802E+00  1.242237526044E+00  1.257144376357E+00  1.272230108873E+00
  1.287496870179E+00  1.302946832621E+00  1.318582194613E+00  1.334405180948E+00
  1.350418043120E+00  1.366623059637E+00  1.383022536353E+00  1.399618806789E+00
  1.416414232470E+00  1.433411203260E+00  1.450612137699E+00  1.468019483352E+00
  1.485635717152E+00  1.503463345758E+00  1.521504905907E+00  1.539762964778E+00
  1.558240120355E+00  1.576939001799E+00  1.595862269821E+00  1.615012617059E+00
  1.634392768463E+00  1.654005481685E+00  1.673853547465E+00  1.693939790035E+00
  1.714267067515E+00  1.734838272325E+00  1.755656331593E+00  1.776724207572E+00
  1.798044898063E+00  1.819621436840E+00  1.841456894082E+00  1.863554376811E+00
  1.885917029333E+00  1.908548033685E+00  1.931450610089E+00  1.954628017410E+00
  1.978083553619E+00  2.001820556262E+00  2.025842402938E+00  2.050152511773E+00
  2.074754341914E+00  2.099651394017E+00  2.124847210745E+00  2.150345377274E+00
  2.176149521801E+00  2.202263316063E+00  2.228690475856E+00  2.255434761566E+00
  2.282499978705E+00  2.309889978449E+00  2.337608658191E+00  2.365659962089E+00
  2.394047881634E+00  2.422776456214E+00  2.451849773688E+00  2.481271970973E+00
  2.511047234624E+00  2.541179801440E+00  2.571673959057E+00  2.602534046566E+00
  2.633764455124E+00  2.665369628586E+00  2.697354064129E+00  2.729722312899E+00
  2.762478980653E+00  2.795628728421E+00  2.829176273162E+00  2.863126388440E+00
  2.897483905101E+00  2.932253711963E+00  2.967440756506E+00  3.003050045584E+00
  3.039086646131E+00  3.075555685885E+00  3.112462354115E+00  3.149811902365E+00
  3.187609645193E+00  3.225860960936E+00  3.264571292467E+00  3.303746147976E+00
  3.343391101752E+00  3.383511794973E+00  3.424113936513E+00  3.465203303751E+00
  3.506785743396E+00  3.548867172317E+00  3.591453578385E+00  3.634551021325E+00
  3.678165633581E+00  3.722303621184E+00  3.766971264638E+00  3.812174919814E+00
  3.857921018852E+00  3.904216071078E+00  3.951066663931E+00  3.998479463898E+00
  4.046461217465E+00  4.095018752074E+00  4.144158977099E+00  4.193888884824E+00
  4.244215551442E+00  4.295146138060E+00  4.346687891716E+00  4.398848146417E+00
  4.451634324174E+00  4.505053936064E+00  4.559114583297E+00  4.613823958296E+00
  4.669189845796E+00  4.725220123945E+00  4.781922765433E+00  4.839305838618E+00
  4.897377508681E+00  4.956146038786E+00  5.015619791251E+00  5.075807228746E+00
  5.136716915491E+00  5.198357518477E+00  5.260737808699E+00  5.323866662403E+00
  5.387753062352E+00  5.452406099100E+00  5.517834972289E+00  5.584048991957E+00
  5.651057579860E+00  5.718870270818E+00  5.787496714068E+00  5.856946674637E+00
  5.927230034733E+00  5.998356795150E+00  6.070337076691E+00  6.143181121612E+00
  6.216899295071E+00  6.291502086612E+00  6.367000111651E+00  6.443404112991E+00
  6.520724962347E+00  6.598973661895E+00  6.678161345838E+00  6.758299281988E+00
  6.839398873372E+00  6.921471659852E+00  7.004529319770E+00  7.088583671608E+00
  7.173646675667E+00  7.259730435775E+00  7.346847201004E+00  7.435009367416E+00
  7.524229479825E+00  7.614520233583E+00  7.705894476386E+00  7.798365210103E+00
  7.891945592624E+00  7.986648939736E+00  8.082488727012E+00  8.179478591737E+00
  8.277632334837E+00  8.376963922855E+00  8.477487489930E+00  8.579217339809E+00
  8.682167947887E+00  8.786353963261E+00  8.891790210820E+00  8.998491693350E+00
  9.106473593670E+00  9.215751276794E+00  9.326340292116E+00  9.438256375621E+00
  9.551515452129E+00  9.666133637554E+00  9.782127241205E+00  9.899512768099E+00
  1.001830692132E+01  1.013852660437E+01  1.026018892362E+01  1.038331119071E+01
  1.050791092500E+01  1.063400585610E+01  1.076161392637E+01  1.089075329349E+01
  1.102144233301E+01  1.115369964100E+01  1.128754403670E+01  1.142299456514E+01
  1.156007049992E+01  1.169879134592E+01  1.183917684207E+01  1.198124696417E+01
  1.212502192774E+01  1.227052219088E+01  1.241776845717E+01  1.256678167865E+01
  1.271758305880E+01  1.287019405550E+01  1.302463638417E+01  1.318093202078E+01
  1.333910320503E+01  1.349917244349E+01  1.366116251281E+01  1.382509646296E+01
  1.399099762052E+01  1.415888959197E+01  1.432879626707E+01  1.450074182227E+01
  1.467475072414E+01  1.485084773283E+01  1.502905790562E+01  1.520940660049E+01
  1.539191947970E+01  1.557662251345E+01  1.576354198362E+01  1.595270448742E+01
  1.614413694127E+01  1.633786658456E+01  1.653392098358E+01  1.673232803538E+01
  1.693311597181E+01  1.713631336347E+01  1.734194912383E+01  1.755005251332E+01
  1.776065314347E+01  1.797378098120E+01  1.818946635297E+01  1.840773994921E+01
  1.862863282860E+01  1.885217642254E+01  1.907840253961E+01  1.930734337009E+01
  1.953903149053E+01  1.977349986841E+01  2.001078186683E+01  2.025091124924E+01
  2.049392218423E+01  2.073984925044E+01  2.098872744144E+01  2.124059217074E+01
  2.149547927679E+01  2.175342502811E+01  2.201446612845E+01  2.227863972199E+01
  2.254598339865E+01  2.281653519944E+01  2.309033362183E+01  2.336741762529E+01
  2.364782663680E+01  2.393160055644E+01  2.421877976311E+01  2.450940512027E+01
  2.480351798172E+01  2.510116019750E+01  2.540237411987E+01  2.570720260930E+01
  2.601568904062E+01  2.632787730910E+01  2.664381183681E+01  2.696353757885E+01
  2.728710002980E+01  2.761454523016E+01  2.794591977292E+01  2.828127081020E+01
  2.862064605992E+01  2.896409381264E+01  2.931166293839E+01  2.966340289365E+01
  3.001936372837E+01  3.037959609311E+01  3.074415124623E+01  3.111308106119E+01
  3.148643803392E+01  3.186427529033E+01  3.224664659381E+01  3.263360635294E+01
  3.302520962917E+01  3.342151214472E+01  3.382257029046E+01  3.422844113394E+01
  3.463918242755E+01  3.505485261668E+01  3.547551084808E+01  3.590121697826E+01
  3.633203158200E+01  3.676801596098E+01  3.720923215251E+01  3.765574293834E+01
  3.810761185360E+01  3.856490319585E+01  3.902768203420E+01  3.949601421861E+01
  3.996996638923E+01  4.044960598590E+01  4.093500125773E+01  4.142622127283E+01
  4.192333592810E+01  4.242641595924E+01  4.293553295075E+01  4.345075934616E+01
  4.397216845831E+01
</grid-data>
</grid>
<valence-charge total-charge="15" is-unscreening-charge="yes"
 rescaled-to-z-pseudo="no">
<radfunc>
<data npts="457">
  4.429282880746E-03  4.433518299175E-03  4.449949184067E-03  4.489933309645E-03
  4.577044270945E-03  4.737271341441E-03  5.021146617495E-03  5.455711633767E-03
  6.083738760288E-03  7.002160431065E-03  8.277020029622E-03  9.950069016192E-03
  1.237044838802E-02  1.536237217149E-02  1.882311917192E-02  2.339189588566E-02
  2.942256494163E-02  3.589637748182E-02  4.405037440293E-02  5.431601135975E-02
  6.723281225211E-02  7.992235069219E-02  9.515574047002E-02  1.134320229919E-01
  1.353441465390E-01  1.615952882639E-01  1.930175616125E-01  2.205624489858E-01
  2.520426284559E-01  2.879969747188E-01  3.290324777137E-01  3.758314937932E-01
  4.291594340598E-01  4.898728235482E-01  5.589276313747E-01  6.373877301619E-01
  7.264332916353E-01  8.273688628940E-01  9.019684877668E-01  9.829475718085E-01
  1.070793592059E+00  1.166022526448E+00  1.269179141941E+00  1.380837020841E+00
  1.501598272994E+00  1.632092875495E+00  1.772977575164E+00  1.924934282522E+00
  2.088667879369E+00  2.264903355590E+00  2.454382184565E+00  2.657857840864E+00
  2.876090359000E+00  3.109839828300E+00  3.359858716797E+00  3.626882916959E+00
  3.911621408632E+00  4.214744440383E+00  4.536870140201E+00  4.878549481093E+00
  5.240249547242E+00  5.622335073036E+00  6.025048261347E+00  6.448486929776E+00
  6.892581085099E+00  7.357068087568E+00  7.841466638605E+00  8.090915947645E+00
  8.345049908067E+00  8.603734817396E+00  8.866818210648E+00  9.134128019012E+00
  9.405471744502E+00  9.680635656648E+00  9.959384017756E+00  1.024145834378E+01
  1.052657670833E+01  1.081443309787E+01  1.110469682651E+01  1.139701201946E+01
  1.169099717439E+01  1.198624481064E+01  1.228232121631E+01  1.257876630372E+01
  1.287509358401E+01  1.317079027179E+01  1.346531753076E+01  1.375811087157E+01
  1.404858071263E+01  1.433611311486E+01  1.462007070070E+01  1.489979376749E+01
  1.517460160460E+01  1.544379402282E+01  1.570665310397E+01  1.596244517706E+01
  1.621042302639E+01  1.644982833537E+01  1.667989436802E+01  1.689984888838E+01
  1.710891731570E+01  1.730632611109E+01  1.749130638882E+01  1.766309774240E+01
  1.782095227307E+01  1.796413880494E+01  1.809194726785E+01  1.820369322567E+01
  1.829872252447E+01  1.837641603121E+01  1.843619443041E+01  1.847752304265E+01
  1.849991662547E+01  1.850294411405E+01  1.848623325627E+01  1.844947509374E+01
  1.839242823859E+01  1.831492289360E+01  1.821686456218E+01  1.809823739397E+01
  1.795910711168E+01  1.779962346574E+01  1.762002216470E+01  1.742062623170E+01
  1.720184674091E+01  1.696418289164E+01  1.670822138372E+01  1.643463506318E+01
  1.614418081520E+01  1.583769668879E+01  1.551609824698E+01  1.518037414571E+01
  1.483158095533E+01  1.447083724911E+01  1.409931699463E+01  1.371824229533E+01
  1.332887554068E+01  1.293251103471E+01  1.253046618300E+01  1.212407232837E+01
  1.171466533388E+01  1.130357601958E+01  1.089212056543E+01  1.048159099680E+01
  1.007324587183E+01  9.668301289487E+00  9.267922335894E+00  8.873215081670E+00
  8.485219236845E+00  8.104901560945E+00  7.733150114968E+00  7.370769429041E+00
  7.018476644990E+00  6.676898676968E+00  6.346570416219E+00  6.027933988294E+00
  5.721339052988E+00  5.427044119529E+00  5.145218832354E+00  4.875947166807E+00
  4.619231459554E+00  4.374997185864E+00  4.143098385424E+00  3.923323630324E+00
  3.715402423331E+00  3.519011911740E+00  3.333783801815E+00  3.159311361078E+00
  2.995156400260E+00  2.840856133294E+00  2.695929822083E+00  2.559885122456E+00
  2.432224058488E+00  2.312448563730E+00  2.200065539609E+00  2.094591392952E+00
  1.995556026021E+00  1.902506263351E+00  1.815008709983E+00  1.732652045129E+00
  1.655048763964E+00  1.581836387925E+00  1.512678170692E+00  1.447263332889E+00
  1.385306863728E+00  1.326548931977E+00  1.270753951971E+00  1.217709352809E+00
  1.167224100487E+00  1.119127023464E+00  1.073264508278E+00  1.029496347443E+00
  9.876910777179E-01  9.477257387826E-01  9.094855472878E-01  8.728635709116E-01
  8.377603824639E-01  8.040838465346E-01  7.717489388172E-01  7.406775078736E-01
  7.107980376872E-01  6.820453943529E-01  6.543605614418E-01  6.276902593367E-01
  6.019861137026E-01  5.772035758235E-01  5.533015060933E-01  5.302420506567E-01
  5.079903148041E-01  4.865141270379E-01  4.657838021659E-01  4.457719176361E-01
  4.264531021770E-01  4.078038368719E-01  3.898022687181E-01  3.724280366240E-01
  3.556621097176E-01  3.394866377646E-01  3.238848134306E-01  3.088407460607E-01
  2.943393466059E-01  2.803662232756E-01  2.669075874669E-01  2.539501694876E-01
  2.414811435801E-01  2.294880616784E-01  2.179587954581E-01  2.068814860521E-01
  1.962445009368E-01  1.860363974435E-01  1.762458923666E-01  1.668618371468E-01
  1.578731981252E-01  1.492690413752E-01  1.410385216412E-01  1.331708749288E-01
  1.256554143178E-01  1.184815285859E-01  1.116386832596E-01  1.051164237305E-01
  9.890438009886E-02  9.299227343474E-02  8.736992316646E-02  8.202725533482E-02
  7.695431147265E-02  7.214125789366E-02  6.757839519780E-02  6.325616781440E-02
  5.916517344436E-02  5.529617225608E-02  5.164009572813E-02  4.818805504105E-02
  4.493134893820E-02  4.186147099066E-02  3.897011621499E-02  3.624918700529E-02
  3.369079835279E-02  3.128728233631E-02  2.903119187655E-02  2.691530375524E-02
  2.493262090762E-02  2.307637400314E-02  2.134002233444E-02  1.971725403970E-02
  1.820198568682E-02  1.678836125154E-02  1.547075052358E-02  1.424374697694E-02
  1.310216514198E-02  1.204103751726E-02  1.105561105989E-02  1.014134329292E-02
  9.293898067944E-03  8.509141020446E-03  7.783134754546E-03  7.112133792550E-03
  6.492579323526E-03  5.921093783643E-03  5.394475299412E-03  4.909692023406E-03
  4.463876390278E-03  4.054319319224E-03  3.678464387254E-03  3.333901995936E-03
  3.018363552534E-03  2.729715684793E-03  2.465954506951E-03  2.225199953004E-03
  2.005690191669E-03  1.805776136025E-03  1.623916059410E-03  1.458670327794E-03
  1.308696257567E-03  1.172743106485E-03  1.049647204375E-03  9.383272291281E-04
  8.377796325194E-04  7.470742194386E-04  6.653498832684E-04  5.918104993178E-04
  5.257209774766E-04  4.664034745619E-04  4.132337661860E-04  3.656377773880E-04
  3.230882707349E-04  2.851016901027E-04  2.512351579058E-04  2.210836231376E-04
  1.942771572215E-04  1.704783943512E-04  1.493801127087E-04  1.307029527008E-04
  1.141932681369E-04  9.962110608404E-05  8.677831098604E-05  7.547674850398E-05
  6.554664444298E-05  5.683503405823E-05  4.920431698962E-05  4.253091305347E-05
  3.670401412116E-05  3.162442733781E-05  2.720350497564E-05  2.336215627750E-05
  2.002993672256E-05  1.714421023843E-05  1.464937998955E-05  1.249618348951E-05
  1.064104791360E-05  9.045501625458E-06  7.675638077366E-06  6.501628395601E-06
  5.497279119100E-06  4.639631720467E-06  3.908600701355E-06  3.286647218686E-06
  2.758485362710E-06  2.310818371623E-06  1.932102229324E-06  1.612334252154E-06
  1.342864426242E-06  1.116227408742E-06  9.259932532423E-07  7.666350613773E-07
  6.334118987777E-07  5.222654437048E-07  4.297289606404E-07  3.528473086807E-07
  2.891068056451E-07  2.363738733357E-07  1.928414873751E-07  1.569825465923E-07
  1.275093621201E-07  1.033385453778E-07  8.356064713002E-08  6.741396705482E-08
  5.426201496744E-08  4.357416129397E-08  3.490906584510E-08  2.790052069200E-08
  2.224538528284E-08  1.769333015088E-08  1.403813994388E-08  1.111035733316E-08
  8.771076917872E-09  6.906722792683E-09  5.424665254341E-09  4.249551428568E-09
  3.320241636743E-09  2.587258310306E-09  2.010667404587E-09  1.558323753407E-09
  1.204421817600E-09  9.283019770952E-10  7.134700461226E-10  5.467941903079E-10
  4.178490160932E-10  3.183813984216E-10  2.418767121703E-10  1.832076261293E-10
  1.383505854528E-10  1.041576205487E-10  7.817324018947E-11  5.848794961660E-11
  4.362142914985E-11  3.242965775546E-11  2.403130611865E-11  1.774958702150E-11
  1.306646489604E-11  9.586715076553E-12  7.009806879038E-12  5.107980563436E-12
  3.709211254008E-12  2.684015503899E-12  1.935268933802E-12  1.390375104757E-12
  9.952639086641E-13  7.098084495906E-13  5.043377675180E-13  3.569930592949E-13
  2.517307666594E-13  1.768198883943E-13  1.237154690063E-13  8.621732010401E-14
  5.984418237654E-14  4.136997780955E-14  2.848153143815E-14  1.952695795370E-14
  1.333144695786E-14  9.062946234488E-15  6.134633706950E-15  4.134399284103E-15
  2.774073075111E-15  1.853027871576E-15  1.232199909099E-15  8.156275125138E-16
  5.373905821534E-16  3.524126268897E-16  2.300125462418E-16  1.494050861486E-16
  9.657570028156E-17  6.212029470437E-17  3.975909853912E-17  2.531925024205E-17
  1.604168697013E-17  1.011130919187E-17  6.340096197674E-18  3.954467592331E-18
  2.453331205216E-18  1.513813080003E-18  9.289830349744E-19  5.669358611168E-19
  3.440498839621E-19  2.076062735633E-19  1.245548754590E-19  7.429353838676E-20
  4.405338095102E-20  2.596638758605E-20  0.000000000000E+00  0.000000000000E+00
  0.000000000000E+00  0.000000000000E+00  0.000000000000E+00  0.000000000000E+00
  0.000000000000E+00  0.000000000000E+00  0.000000000000E+00  0.000000000000E+00
  0.000000000000E+00  0.000000000000E+00  0.000000000000E+00  0.000000000000E+00
  0.000000000000E+00  0.000000000000E+00  0.000000000000E+00  0.000000000000E+00
  0.000000000000E+00
</data>
</radfunc>
</valence-charge>
<pseudocore-charge matching-radius="0.838007164909"
 number-of-continuous-derivatives="4">
<annotation model-charge-form="Teter function with specified parameters" />
<radfunc>
<data npts="291">
  8.771469846307E+01  8.770969400099E+01  8.769473379162E+01  8.766977438872E+01
  8.763314924435E+01  8.758641495434E+01  8.752684944213E+01  8.745863725095E+01
  8.738193413680E+01  8.729247837292E+01  8.719163630436E+01  8.708201571704E+01
  8.694951601370E+01  8.681111390734E+01  8.667283349363E+01  8.651352878192E+01
  8.633004865179E+01  8.615609307284E+01  8.596049198962E+01  8.574060804537E+01
  8.549349760144E+01  8.527401326010E+01  8.503316141147E+01  8.476892885708E+01
  8.447912678007E+01  8.416137842330E+01  8.381310657621E+01  8.353020153428E+01
  8.322730245014E+01  8.290307548791E+01  8.255611000905E+01  8.218491608201E+01
  8.178792225386E+01  8.136347366136E+01  8.090983057108E+01  8.042516745185E+01
  7.990757269814E+01  7.935504913898E+01  7.896627080353E+01  7.856040826031E+01
  7.813680889185E+01  7.769480502339E+01  7.723371466456E+01  7.675284240526E+01
  7.625148048071E+01  7.572891002186E+01  7.518440250805E+01  7.461722143979E+01
  7.402662425039E+01  7.341186447604E+01  7.277219420447E+01  7.210686682319E+01
  7.141514008863E+01  7.069627953785E+01  6.994956226456E+01  6.917428108121E+01
  6.836974908807E+01  6.753530466981E+01  6.667031693857E+01  6.577419164078E+01
  6.484637754269E+01  6.388637330662E+01  6.289373486605E+01  6.186808330327E+01
  6.080911322765E+01  5.971660164601E+01  5.859041730908E+01  5.801468433054E+01
  5.743053050874E+01  5.683796967166E+01  5.623702329080E+01  5.562772081957E+01
  5.501010003608E+01  5.438420738949E+01  5.375009834949E+01  5.310783775794E+01
  5.245750018202E+01  5.179917026788E+01  5.113294309395E+01  5.045892452276E+01
  4.977723155011E+01  4.908799265060E+01  4.839134811787E+01  4.768745039856E+01
  4.697646441815E+01  4.625856789731E+01  4.553395165713E+01  4.480281991126E+01
  4.406539054329E+01  4.332189536739E+01  4.257258037007E+01  4.181770593100E+01
  4.105754702065E+01  4.029239337240E+01  3.952254962675E+01  3.874833544514E+01
  3.797008559079E+01  3.718814997399E+01  3.640289365914E+01  3.561469683077E+01
  3.482395471587E+01  3.403107745965E+01  3.323648995192E+01  3.244063160140E+01
  3.164395605508E+01  3.084693085990E+01  3.005003706413E+01  2.925376875583E+01
  2.845863253585E+01  2.766514692317E+01  2.687384169013E+01  2.608525712593E+01
  2.529994322618E+01  2.451845880739E+01  2.374137054494E+01  2.296925193365E+01
  2.220268217056E+01  2.144224495963E+01  2.068852723876E+01  1.994211783000E+01
  1.920360601409E+01  1.847358003145E+01  1.775262551197E+01  1.704132383676E+01
  1.634025043578E+01  1.564997302571E+01  1.497104979351E+01  1.430402753163E+01
  1.364943973174E+01  1.300780464456E+01  1.237962331441E+01  1.176537759771E+01
  1.116552817547E+01  1.058051257088E+01  1.001074318365E+01  9.456605353525E+00
  8.918455466279E+00  8.396619115977E+00  7.891389337950E+00  7.403024927402E+00
  6.931748859009E+00  6.477746823089E+00  6.041165894140E+00  5.622113347510E+00
  5.220655639835E+00  4.836817568558E+00  4.470581625317E+00  4.121887557288E+00
  3.790632149650E+00  3.476669241169E+00  3.179809983557E+00  2.899823353627E+00
  2.636436925434E+00  2.389337907528E+00  2.158174448124E+00  1.942557208508E+00
  1.742061202269E+00  1.556227895070E+00  1.384567556614E+00  1.226561853329E+00
  1.081666667031E+00  9.493151215513E-01  8.289207960586E-01  7.198811005748E-01
  6.215807861277E-01  5.333955590648E-01  4.546957664161E-01  3.848501168568E-01
  3.232293998789E-01  2.692101642843E-01  2.221783161382E-01  1.815325959209E-01
  1.466878948474E-01  1.170783712279E-01  9.216032936287E-02  7.141482580565E-02
  5.434997091432E-02  4.050289741962E-02  2.944137224406E-02  2.076503296049E-02
  1.410623601093E-02  9.130510026453E-03  5.536614184680E-03  3.056208382582E-03
  1.453148939616E-03  5.224304163113E-04  8.880076103749E-05  5.083200805252E-06
  1.502438869112E-04  4.272491136289E-04  7.607597794797E-04  1.094713505218E-03
  1.389846334720E-03  1.621206130491E-03  1.775708578644E-03  1.849784127041E-03
  1.847160230761E-03  1.776818058292E-03  1.651156458297E-03  1.484388689389E-03
  1.291189408991E-03  1.085600976949E-03  8.801995603014E-04  6.855131518935E-04
  5.096757669557E-04  3.582950778787E-04  2.345048815057E-04  1.391693158454E-04
  7.120284646651E-05  2.796884727344E-05  5.720143568231E-06  4.711554105176E-08
  6.302734648974E-06  1.997899321967E-05  3.701528057156E-05  5.402598598729E-05
  6.844155737404E-05  7.856398538777E-05  8.354379908806E-05  8.329077501921E-05
  7.833437076512E-05  6.965218468504E-05  5.848541722945E-05  4.615939172173E-05
  3.392483494442E-05  2.283208733126E-05  1.364607162781E-05  6.805125565584E-06
  2.422154007685E-06  3.224199451814E-07  1.090545324717E-07  1.245309808824E-06
  3.141861659284E-06  5.238106345351E-06  7.068243710686E-06  8.305730822969E-06
  8.783043577965E-06  8.487162771131E-06  7.534361123856E-06  6.130314908126E-06
  4.523006887412E-06  2.956177761772E-06  1.630237038943E-06  6.757402691518E-07
  1.420946193110E-07  0.000000000000E+00  0.000000000000E+00  0.000000000000E+00
  0.000000000000E+00  0.000000000000E+00  0.000000000000E+00  0.000000000000E+00
  0.000000000000E+00  0.000000000000E+00  0.000000000000E+00  0.000000000000E+00
  0.000000000000E+00  0.000000000000E+00  0.000000000000E+00  0.000000000000E+00
  0.000000000000E+00  0.000000000000E+00  0.000000000000E+00  0.000000000000E+00
  0.000000000000E+00  0.000000000000E+00  0.000000000000E+00  0.000000000000E+00
  0.000000000000E+00  0.000000000000E+00  0.000000000000E+00  0.000000000000E+00
  0.000000000000E+00  0.000000000000E+00  0.000000000000E+00  0.000000000000E+00
  0.000000000000E+00  0.000000000000E+00  0.000000000000E+00  0.000000000000E+00
  0.000000000000E+00  0.000000000000E+00  0.000000000000E+00  0.000000000000E+00
  0.000000000000E+00  0.000000000000E+00  0.000000000000E+00  0.000000000000E+00
  0.000000000000E+00  0.000000000000E+00  0.000000000000E+00
</data>
</radfunc>
</pseudocore-charge>
<semilocal-potentials set="scalar_relativistic">
<slps n="5" l="s" rc="1.90854803368" eref="-0.480876394293">
<radfunc>
<data npts="291">
  3.222611379863E+01  3.220472460969E+01  3.214088168668E+01  3.203469117086E+01
  3.187959794607E+01  3.168294631109E+01  3.143431256263E+01  3.115231772346E+01
  3.083865161430E+01  3.047734504876E+01  3.007575971281E+01  2.964593253509E+01
  2.913550806744E+01  2.861271120281E+01  2.810064978238E+01  2.752308419270E+01
  2.687371861406E+01  2.627318635913E+01  2.561486733248E+01  2.489540409174E+01
  2.411174646473E+01  2.343682701384E+01  2.271806532649E+01  2.195467591439E+01
  2.114621546078E+01  2.029263546437E+01  1.939433335140E+01  1.869177405793E+01
  1.796512056206E+01  1.721512263739E+01  1.644271462180E+01  1.564902000846E+01
  1.483535373534E+01  1.400322193882E+01  1.315431898697E+01  1.229052166927E+01
  1.141388049188E+01  1.052660810681E+01  9.930347033312E+00  9.331139874647E+00
  8.729742554110E+00  8.126931761489E+00  7.523502135421E+00  6.920263313905E+00
  6.318036880212E+00  5.717653232901E+00  5.119948409558E+00  4.525760894255E+00
  3.935928438507E+00  3.351284924695E+00  2.772657299524E+00  2.200862603101E+00
  1.636705116670E+00  1.080973648997E+00  5.344389778384E-01 -2.148541000043E-03
 -5.280611888693E-01 -1.042595920195E+00 -1.545076220441E+00 -2.034853792477E+00
 -2.511310082862E+00 -2.973857664716E+00 -3.421941499035E+00 -3.855040101345E+00
 -4.272666645499E+00 -4.674370041080E+00 -5.059736025214E+00 -5.246173382126E+00
 -5.428388313484E+00 -5.606339924126E+00 -5.779989858030E+00 -5.949302347081E+00
 -6.114244263537E+00 -6.274785176608E+00 -6.430897413582E+00 -6.582556125875E+00
 -6.729739360429E+00 -6.872428136828E+00 -7.010606530500E+00 -7.144261762349E+00
 -7.273384295119E+00 -7.397967936777E+00 -7.518009951140E+00 -7.633511175925E+00
 -7.744476148349E+00 -7.850913238323E+00 -7.952834789227E+00 -8.050257266139E+00
 -8.143201411297E+00 -8.231692406478E+00 -8.315760041823E+00 -8.395438890505E+00
 -8.470768488500E+00 -8.541793518514E+00 -8.608563996974E+00 -8.671135462744E+00
 -8.729569166067E+00 -8.783932255937E+00 -8.834297963915E+00 -8.880745782119E+00
 -8.923361632843E+00 -8.962238027008E+00 -8.997474208338E+00 -9.029176279884E+00
 -9.057457309242E+00 -9.082437408523E+00 -9.104243784876E+00 -9.123010757150E+00
 -9.138879734033E+00 -9.151999148868E+00 -9.162524346199E+00 -9.170617415062E+00
 -9.176446963993E+00 -9.180187832860E+00 -9.182020736747E+00 -9.182131837439E+00
 -9.180712238387E+00 -9.177957399597E+00 -9.174066469476E+00 -9.169241531449E+00
 -9.163686764084E+00 -9.157607514487E+00 -9.151209285913E+00 -9.144696641856E+00
 -9.138272030284E+00 -9.132134533232E+00 -9.126478548539E+00 -9.121492412168E+00
 -9.117356971232E+00 -9.114244119469E+00 -9.112315308523E+00 -9.111720049868E+00
 -9.112594423554E+00 -9.115059611135E+00 -9.119220471035E+00 -9.125164175299E+00
 -9.132958927003E+00 -9.142652777623E+00 -9.154272563337E+00 -9.167822978539E+00
 -9.183285803763E+00 -9.200619303852E+00 -9.219757810453E+00 -9.240611500932E+00
 -9.263066383556E+00 -9.286984496368E+00 -9.312204324702E+00 -9.338541439656E+00
 -9.365789357404E+00 -9.393720616769E+00 -9.422088070271E+00 -9.450626381888E+00
 -9.479053723057E+00 -9.507073657096E+00 -9.534377201143E+00 -9.560645054051E+00