<?xml version="1.0" encoding="UTF-8" ?>
<psml version="1.1" energy_unit="hartree" length_unit="bohr"
 uuid="68b4bde0-23d2-11e8-78f1-decffedf69b1"
 xmlns="http://esl.cecam.org/PSML/ns/1.1">
<provenance creator="ONCVPSP-3.3.0+psml-3.3.0-73 (scalar-relativistic)"
 date="2018-03-09">
<annotation action="semilocal-pseudopotential-generation"
 action-cont="projectors-generation" />
<input-file name="oncvpsp-input">
<![CDATA[# atsym z nc nv iexc psfile
Sc 21 3 4 -001012 upf
# n l f
1 0 2.0
2 0 2.0
2 1 6.0
3 0 2.0
3 1 6.0
3 2 1.0
4 0 2.0
# lmax
2
# l rc ep ncon nbas qcut
0 1.35 0.0 4 9 8.6
1 1.35 0.0 4 8 9.0
2 1.65 0.0 4 8 9.0
# lloc lpopt rc5 dvloc0
4 5 1.3 0.0
# l nproj debl
0 2 2.0
1 2 2.0
2 2 2.0
# icmod fcfact rcfact
3 5.0 1.25
# epsh1 epsh2 depsh
-12.0 12.0 0.02
# rlmax drl
6.0 0.01
 0
]]>
</input-file>
</provenance>
<pseudo-atom-spec atomic-label="Sc" atomic-number="21" z-pseudo="11"
 flavor="Hamann&apos;s oncvpsp" relativity="scalar" spin-dft="no"
 core-corrections="yes">
<annotation pseudo-energy="-46.6417585589" />
<exchange-correlation>
<annotation oncvpsp-xc-code="-1012" oncvpsp-xc-type="libxc-interface" />
<libxc-info number-of-functionals="2">
<functional name="Slater exchange (LDA)" type="exchange" id="1" />
<functional name="Perdew &amp; Wang (LDA)" type="correlation" id="12" />
</libxc-info>
</exchange-correlation>
<valence-configuration total-valence-charge="11">
<shell n="3" l="s" occupation="2" />
<shell n="3" l="p" occupation="6" />
<shell n="3" l="d" occupation="1" />
<shell n="4" l="s" occupation="2" />
</valence-configuration>
</pseudo-atom-spec>
<grid npts="457">
<annotation type="sampled from oncvpsp log grid"
 recipe="r(i:1..N) = r1*exp(a*(i-1)) + r=0; resampled"
 recipe-cont="r1: scale; a: step" scale="0.238095238095E-04"
 step="0.119285708653E-01" delta="0.500000000000E-02" rmax="44.1744182858" />
<grid-data>
  0.000000000000E+00  5.044299027886E-03  1.007559144583E-02  1.511499382701E-02
  2.012520320902E-02  2.524468824449E-02  3.055330615518E-02  3.567835927215E-02
  4.068089620927E-02  4.583483127647E-02  5.102937504002E-02  5.613895828010E-02
  6.176016528329E-02  6.713856230878E-02  7.298533817411E-02  7.840047603693E-02
  8.421738936325E-02  8.939316979483E-02  9.488704015153E-02  1.007185494080E-01
  1.069084479677E-01  1.121331635373E-01  1.176132158300E-01  1.233610833896E-01
  1.293898545982E-01  1.357132574790E-01  1.423456909567E-01  1.475318751429E-01
  1.529070113532E-01  1.584779838142E-01  1.642519275704E-01  1.702362376230E-01
  1.764385784003E-01  1.828668935745E-01  1.895294162352E-01  1.964346794343E-01
  2.035915271145E-01  2.110091254365E-01  2.161037297611E-01  2.213213382124E-01
  2.266649206022E-01  2.321375184453E-01  2.377422466906E-01  2.434822954947E-01
  2.493609320371E-01  2.553815023802E-01  2.615474333737E-01  2.678622346051E-01
  2.743295003974E-01  2.809529118550E-01  2.877362389588E-01  2.946833427122E-01
  3.017981773387E-01  3.090847925323E-01  3.165473357632E-01  3.241900546379E-01
  3.320172993171E-01  3.400335249918E-01  3.482432944192E-01  3.566512805196E-01
  3.652622690365E-01  3.740811612601E-01  3.831129768176E-01  3.923628565299E-01
  4.018360653379E-01  4.115379952994E-01  4.214741686579E-01  4.265318586818E-01
  4.316502409860E-01  4.368300438779E-01  4.420720044044E-01  4.473768684572E-01
  4.527453908787E-01  4.581783355693E-01  4.636764755961E-01  4.692405933033E-01
  4.748714804229E-01  4.805699381880E-01  4.863367774462E-01  4.921728187756E-01
  4.980788926009E-01  5.040558393121E-01  5.101045093838E-01  5.162257634964E-01
  5.224204726584E-01  5.286895183303E-01  5.350337925503E-01  5.414541980609E-01
  5.479516484376E-01  5.545270682189E-01  5.611813930375E-01  5.679155697539E-01
  5.747305565910E-01  5.816273232701E-01  5.886068511493E-01  5.956701333631E-01
  6.028181749635E-01  6.100519930630E-01  6.173726169798E-01  6.247810883835E-01
  6.322784614441E-01  6.398658029815E-01  6.475441926172E-01  6.553147229287E-01
  6.631784996038E-01  6.711366415990E-01  6.791902812982E-01  6.873405646738E-01
  6.955886514499E-01  7.039357152673E-01  7.123829438505E-01  7.209315391767E-01
  7.295827176468E-01  7.383377102586E-01  7.471977627817E-01  7.561641359351E-01
  7.652381055663E-01  7.744209628331E-01  7.837140143871E-01  7.931185825597E-01
  8.026360055504E-01  8.122676376171E-01  8.220148492685E-01  8.318790274597E-01
  8.418615757892E-01  8.519639146987E-01  8.621874816750E-01  8.725337314552E-01
  8.830041362326E-01  8.936001858674E-01  9.043233880978E-01  9.151752687550E-01
  9.261573719800E-01  9.372712604438E-01  9.485185155691E-01  9.599007377560E-01
  9.714195466090E-01  9.830765811683E-01  9.948735001424E-01  1.006811982144E+00
  1.018893725930E+00  1.031120450641E+00  1.043493896049E+00  1.056015822801E+00
  1.068688012675E+00  1.081512268827E+00  1.094490416053E+00  1.107624301046E+00
  1.120915792658E+00  1.134366782170E+00  1.147979183556E+00  1.161754933759E+00
  1.175695992964E+00  1.189804344879E+00  1.204081997018E+00  1.218530980982E+00
  1.233153352754E+00  1.247951192987E+00  1.262926607303E+00  1.278081726590E+00
  1.293418707309E+00  1.308939731797E+00  1.324647008579E+00  1.340542772682E+00
  1.356629285954E+00  1.372908837385E+00  1.389383743434E+00  1.406056348355E+00
  1.422929024535E+00  1.440004172830E+00  1.457284222904E+00  1.474771633579E+00
  1.492468893182E+00  1.510378519900E+00  1.528503062139E+00  1.546845098884E+00
  1.565407240071E+00  1.584192126952E+00  1.603202432475E+00  1.622440861665E+00
  1.641910152005E+00  1.661613073829E+00  1.681552430715E+00  1.701731059883E+00
  1.722151832602E+00  1.742817654593E+00  1.763731466448E+00  1.784896244046E+00
  1.806314998974E+00  1.827990778962E+00  1.849926668309E+00  1.872125788329E+00
  1.894591297789E+00  1.917326393363E+00  1.940334310083E+00  1.963618321804E+00
  1.987181741666E+00  2.011027922566E+00  2.035160257636E+00  2.059582180728E+00
  2.084297166897E+00  2.109308732900E+00  2.134620437694E+00  2.160235882947E+00
  2.186158713542E+00  2.212392618105E+00  2.238941329522E+00  2.265808625476E+00
  2.292998328982E+00  2.320514308930E+00  2.348360480637E+00  2.376540806404E+00
  2.405059296081E+00  2.433920007634E+00  2.463127047726E+00  2.492684572298E+00
  2.522596787166E+00  2.552867948612E+00  2.583502363995E+00  2.614504392363E+00
  2.645878445072E+00  2.677628986413E+00  2.709760534250E+00  2.742277660661E+00
  2.775184992588E+00  2.808487212499E+00  2.842189059049E+00  2.876295327758E+00
  2.910810871691E+00  2.945740602151E+00  2.981089489377E+00  3.016862563250E+00
  3.053064914009E+00  3.089701692977E+00  3.126778113293E+00  3.164299450652E+00
  3.202271044060E+00  3.240698296589E+00  3.279586676148E+00  3.318941716262E+00
  3.358769016857E+00  3.399074245059E+00  3.439863136000E+00  3.481141493632E+00
  3.522915191555E+00  3.565190173854E+00  3.607972455940E+00  3.651268125411E+00
  3.695083342916E+00  3.739424343031E+00  3.784297435148E+00  3.829709004370E+00
  3.875665512422E+00  3.922173498571E+00  3.969239580554E+00  4.016870455521E+00
  4.065072900987E+00  4.113853775799E+00  4.163220021108E+00  4.213178661361E+00
  4.263736805298E+00  4.314901646961E+00  4.366680466725E+00  4.419080632326E+00
  4.472109599914E+00  4.525774915112E+00  4.580084214094E+00  4.635045224663E+00
  4.690665767359E+00  4.746953756567E+00  4.803917201646E+00  4.861564208066E+00
  4.919902978563E+00  4.978941814305E+00  5.038689116077E+00  5.099153385470E+00
  5.160343226096E+00  5.222267344809E+00  5.284934552946E+00  5.348353767582E+00
  5.412534012793E+00  5.477484420946E+00  5.543214233998E+00  5.609732804806E+00
  5.677049598463E+00  5.745174193645E+00  5.814116283969E+00  5.883885679376E+00
  5.954492307529E+00  6.025946215219E+00  6.098257569802E+00  6.171436660639E+00
  6.245493900567E+00  6.320439827374E+00  6.396285105302E+00  6.473040526566E+00
  6.550717012885E+00  6.629325617039E+00  6.708877524444E+00  6.789384054737E+00
  6.870856663394E+00  6.953306943355E+00  7.036746626675E+00  7.121187586195E+00
  7.206641837229E+00  7.293121539276E+00  7.380638997747E+00  7.469206665720E+00
  7.558837145709E+00  7.649543191458E+00  7.741337709755E+00  7.834233762272E+00
  7.928244567419E+00  8.023383502228E+00  8.119664104255E+00  8.217100073506E+00
  8.315705274388E+00  8.415493737681E+00  8.516479662533E+00  8.618677418483E+00
  8.722101547505E+00  8.826766766075E+00  8.932687967268E+00  9.039880222875E+00
  9.148358785550E+00  9.258139090977E+00  9.369236760068E+00  9.481667601189E+00
  9.595447612403E+00  9.710592983752E+00  9.827120099557E+00  9.945045540752E+00
  1.006438608724E+01  1.018515872029E+01  1.030738062493E+01  1.043106919243E+01
  1.055624202274E+01  1.068291692701E+01  1.081111193014E+01  1.094084527330E+01
  1.107213541658E+01  1.120500104158E+01  1.133946105408E+01  1.147553458672E+01
  1.161324100177E+01  1.175259989379E+01  1.189363109251E+01  1.203635466562E+01
  1.218079092161E+01  1.232696041267E+01  1.247488393762E+01  1.262458254487E+01
  1.277607753541E+01  1.292939046584E+01  1.308454315143E+01  1.324155766924E+01
  1.340045636127E+01  1.356126183761E+01  1.372399697966E+01  1.388868494342E+01
  1.405534916274E+01  1.422401335269E+01  1.439470151292E+01  1.456743793108E+01
  1.474224718625E+01  1.491915415249E+01  1.509818400232E+01  1.527936221034E+01
  1.546271455687E+01  1.564826713155E+01  1.583604633713E+01  1.602607889317E+01
  1.621839183989E+01  1.641301254197E+01  1.660996869247E+01  1.680928831678E+01
  1.701099977659E+01  1.721513177390E+01  1.742171335519E+01  1.763077391545E+01
  1.784234320244E+01  1.805645132087E+01  1.827312873672E+01  1.849240628156E+01
  1.871431515694E+01  1.893888693882E+01  1.916615358209E+01  1.939614742507E+01
  1.962890119417E+01  1.986444800850E+01  2.010282138461E+01  2.034405524122E+01
  2.058818390411E+01  2.083524211096E+01  2.108526501630E+01  2.133828819649E+01
  2.159434765485E+01  2.185347982671E+01  2.211572158463E+01  2.238111024364E+01
  2.264968356657E+01  2.292147976937E+01  2.319653752660E+01  2.347489597692E+01
  2.375659472864E+01  2.404167386538E+01  2.433017395177E+01  2.462213603919E+01
  2.491760167166E+01  2.521661289172E+01  2.551921224642E+01  2.582544279338E+01
  2.613534810690E+01  2.644897228418E+01  2.676635995159E+01  2.708755627101E+01
  2.741260694626E+01  2.774155822962E+01  2.807445692837E+01  2.841135041151E+01
  2.875228661645E+01  2.909731405585E+01  2.944648182452E+01  2.979983960641E+01
  3.015743768169E+01  3.051932693387E+01  3.088555885708E+01  3.125618556336E+01
  3.163125979012E+01  3.201083490760E+01  3.239496492650E+01  3.278370450561E+01
  3.317710895968E+01  3.357523426720E+01  3.397813707840E+01  3.438587472334E+01
  3.479850522002E+01  3.521608728266E+01  3.563868033006E+01  3.606634449402E+01
  3.649914062795E+01  3.693713031548E+01  3.738037587927E+01  3.782894038982E+01
  3.828288767450E+01  3.874228232659E+01  3.920718971451E+01  3.967767599108E+01
  4.015380810298E+01  4.063565380021E+01  4.112328164581E+01  4.161676102556E+01
  4.211616215787E+01  4.262155610377E+01  4.313301477701E+01  4.365061095433E+01
  4.417441828579E+01
</grid-data>
</grid>
<valence-charge total-charge="11" is-unscreening-charge="yes"
 rescaled-to-z-pseudo="no">
<radfunc>
<data npts="457">
  9.050087632284E-01  9.065387302708E-01  9.111122248933E-01  9.187420916704E-01
  9.293496140034E-01  9.432963072176E-01  9.610694190467E-01  9.814187221315E-01
  1.004296188969E+00  1.030970683442E+00  1.061031849630E+00  1.093699495792E+00
  1.133170623645E+00  1.174382719981E+00  1.222982995201E+00  1.271502009269E+00
  1.327349641684E+00  1.380263623861E+00  1.439720897379E+00  1.506506937159E+00
  1.581494903846E+00  1.648038235273E+00  1.720992144834E+00  1.800945003634E+00
  1.888532716368E+00  1.984441055603E+00  2.089407713281E+00  2.174551163041E+00
  2.265587804223E+00  2.362888949237E+00  2.466843197152E+00  2.577856123568E+00
  2.696349703632E+00  2.822761412546E+00  2.957542939015E+00  3.101158437132E+00
  3.254082231107E+00  3.416795874966E+00  3.530949978543E+00  3.649814428969E+00
  3.773532016046E+00  3.902243820170E+00  4.036088293920E+00  4.175200225093E+00
  4.319709570284E+00  4.469740147579E+00  4.625408176388E+00  4.786820652012E+00
  4.954073542235E+00  5.127249793015E+00  5.306417130404E+00  5.491625646044E+00
  5.682905154171E+00  5.880262308957E+00  6.083677472419E+00  6.293101325026E+00
  6.508451213693E+00  6.729607235177E+00  6.956408057054E+00  7.188646483700E+00
  7.426064781013E+00  7.668349781315E+00  7.915127798951E+00  8.165959397822E+00
  8.420334064492E+00  8.677664854739E+00  8.937283097543E+00  9.067717437537E+00
  9.198433258488E+00  9.329321749154E+00  9.460268084344E+00  9.591151298865E+00
  9.721844172056E+00  9.852213124441E+00  9.982118128111E+00  1.011141263257E+01
  1.023994350785E+01  1.036755100671E+01  1.049406874811E+01  1.061932372368E+01
  1.074313632971E+01  1.086532042647E+01  1.098568342743E+01  1.110402642040E+01
  1.122014432310E+01  1.133382607539E+01  1.144485487037E+01  1.155300842686E+01
  1.165805930525E+01  1.175977526890E+01  1.185791969322E+01  1.195225202415E+01
  1.204252828776E+01  1.212850165251E+01  1.220992304525E+01  1.228654182200E+01
  1.235810649388E+01  1.242436550861E+01  1.248506808710E+01  1.253996511453E+01
  1.258881008456E+01  1.263136009497E+01  1.266737689224E+01  1.269662796200E+01
  1.271888766170E+01  1.273393839096E+01  1.274157179465E+01  1.274158999266E+01
  1.273380682991E+01  1.271804913919E+01  1.269415800903E+01  1.266199004768E+01
  1.262141863414E+01  1.257233514638E+01  1.251465015625E+01  1.244829458065E+01
  1.237322077772E+01  1.228940357696E+01  1.219684123196E+01  1.209555628461E+01
  1.198559632983E+01  1.186703467009E+01  1.173997084974E+01  1.160453105970E+01
  1.146086840378E+01  1.130916301895E+01  1.114962204289E+01  1.098247942343E+01
  1.080799556533E+01  1.062645681176E+01  1.043817475864E+01  1.024348540170E+01
  1.004274811730E+01  9.836344479405E+00  9.624676916460E+00  9.408167212865E+00
  9.187254861123E+00  8.962395271493E+00  8.734057847050E+00  8.502723932784E+00
  8.268884648185E+00  8.033038613476E+00  7.795689580367E+00  7.557343978982E+00
  7.318508393445E+00  7.079686979578E+00  6.841378839287E+00  6.604075367529E+00
  6.368257589288E+00  6.134393505715E+00  5.902935470527E+00  5.674317619812E+00
  5.448953380546E+00  5.227233085218E+00  5.009521721936E+00  4.796156850981E+00
  4.587446720027E+00  4.383668610685E+00  4.185067448844E+00  3.991854709984E+00
  3.804207648363E+00  3.622268875499E+00  3.446146308726E+00  3.275913504925E+00
  3.111610388112E+00  2.953245224697E+00  2.800800456142E+00  2.654240755873E+00
  2.513515087323E+00  2.378557133992E+00  2.249286977806E+00  2.125612320884E+00
  2.007429772576E+00  1.894626110756E+00  1.787079516936E+00  1.684660776364E+00
  1.587234434764E+00  1.494659903205E+00  1.406792502701E+00  1.323484440470E+00
  1.244585710247E+00  1.169944909813E+00  1.099409865512E+00  1.032827746911E+00
  9.700449226610E-01  9.109074592528E-01  8.552618499887E-01  8.029554956900E-01
  7.538372199943E-01  7.077577310412E-01  6.645700432193E-01  6.241298586294E-01
  5.862959091758E-01  5.509302603656E-01  5.178985780301E-01  4.870703592880E-01
  4.583191291910E-01  4.315226045657E-01  4.065628266444E-01  3.833262641372E-01
  3.617038884434E-01  3.415912227330E-01  3.228883666504E-01  3.054999984024E-01
  2.893353559882E-01  2.743081993178E-01  2.603367549425E-01  2.473436450886E-01
  2.352558026438E-01  2.240043736999E-01  2.135246091960E-01  2.037557471489E-01
  1.946408868874E-01  1.861268566357E-01  1.781640757186E-01  1.707064125794E-01
  1.637110397265E-01  1.571382866381E-01  1.509514915801E-01  1.451168532065E-01
  1.396032827352E-01  1.343822574142E-01  1.294276759192E-01  1.247157162480E-01
  1.202246966136E-01  1.159349397674E-01  1.118286411247E-01  1.078897410063E-01
  1.041038012554E-01  1.004578864393E-01  9.694044979955E-02  9.354122406957E-02
  9.025111724369E-02  8.706211334292E-02  8.396717819297E-02  8.096017020099E-02
  7.803575609213E-02  7.518933154439E-02  7.241694664065E-02  6.971523603920E-02
  6.708135374943E-02  6.451291238606E-02  6.200792676512E-02  5.956476169540E-02
  5.718208381197E-02  5.485881729281E-02  5.259410329501E-02  5.038726294399E-02
  4.823776370749E-02  4.614518898494E-02  4.410921074325E-02  4.212956503053E-02
  4.020603020163E-02  3.833840769103E-02  3.652650517210E-02  3.477012194495E-02
  3.306903639926E-02  3.142299540237E-02  2.983170546809E-02  2.829482556614E-02
  2.681196143750E-02  2.538266128620E-02  2.400641272341E-02  2.268264084537E-02
  2.141070733219E-02  2.018991046001E-02  1.901948592499E-02  1.789860838262E-02
  1.682639361187E-02  1.580190121850E-02  1.482413779895E-02  1.389206048708E-02
  1.300458081747E-02  1.216056883880E-02  1.135885741780E-02  1.059824667874E-02
  9.877508527701E-03  9.195391215540E-03  8.550623897306E-03  7.941921150255E-03
  7.367987416234E-03  6.827521338037E-03  6.319219962841E-03  5.841782789193E-03
  5.393915637255E-03  4.974334325046E-03  4.581768136294E-03  4.214963068263E-03
  3.872684850443E-03  3.553721727440E-03  3.256887001624E-03  2.981021333195E-03
  2.724994797290E-03  2.487708699520E-03  2.268097153007E-03  2.065128421450E-03
  1.877806034160E-03  1.705169680165E-03  1.546295889608E-03  1.400298511573E-03
  1.266328998308E-03  1.143576506470E-03  1.031267826594E-03  9.286671524155E-04
  8.350757019847E-04  7.498312027370E-04  6.723072527732E-04  6.019125706104E-04
  5.380901455731E-04  4.803163008178E-04  4.280996807259E-04  3.809801740688E-04
  3.385277839578E-04  3.003414551316E-04  2.660478686377E-04  2.353002134130E-04
  2.077769436898E-04  1.831805305439E-04  1.612362152733E-04  1.416907716536E-04
  1.243112834647E-04  1.088839430397E-04  9.521287593725E-05  8.311899621140E-05
  7.243889613525E-05  6.302377363899E-05  5.473840015402E-05  4.746013101150E-05
  4.107796003269E-05  3.549161946997E-05  3.061072601417E-05  2.635397317658E-05
  2.264836998359E-05  1.942852558841E-05  1.663597910794E-05  1.421857373244E-05
  1.212987393068E-05  1.032862438236E-05  8.778249110985E-06  7.446389162690E-06
  6.304477077645E-06  5.327346328201E-06  4.492873850418E-06  3.781653770095E-06
  3.176700419057E-06  2.663178749889E-06  2.228160285276E-06  1.860402779622E-06
  1.550151823382E-06  1.288962682920E-06  1.069540738535E-06  8.855989591398E-07
  7.317309322374E-07  6.032980509196E-07  4.963295443576E-07  4.074341235288E-07
  3.337220987293E-07  2.727369089111E-07  2.223950843477E-07  1.809337429552E-07
  1.468647963165E-07  1.189351136876E-07  9.609196072858E-08  7.745309421539E-08
  6.228095443048E-08  4.996045325527E-08  3.997990821208E-08  3.191472088773E-08
  2.541344241521E-08  2.018590913749E-08  1.599316838666E-08  1.263894766815E-08
  9.962450640900E-09  7.832290336861E-09  6.141394278587E-09  4.802737744616E-09
  3.745780608623E-09  2.913500145443E-09  2.259927153057E-09  1.748105873939E-09
  1.348409691128E-09  1.037154598265E-09  7.954610852465E-10  6.083230593651E-10
  4.638468528403E-10  3.221010104216E-10  2.437186727672E-10  1.838419637764E-10
  1.382433749276E-10  1.036268539671E-10  7.743064181029E-11  5.767000483373E-11
  4.281219491425E-11  3.167735716940E-11  2.336025943933E-11  1.716867396403E-11
  1.257503144476E-11  9.178617412083E-12  6.676113424262E-12  4.838720601223E-12
  3.494456942513E-12  2.514506809695E-12  1.802732691359E-12  1.287645824374E-12
  9.162816970921E-13  6.495457941736E-13  4.586898607755E-13  3.226541679074E-13
  2.260706117540E-13  1.577681341812E-13  1.096584792277E-13  7.590878404586E-14
  5.232962357949E-14  3.592423707162E-14  2.455784203774E-14  1.671604843542E-14
  1.132910506677E-14  7.644580685774E-15  5.135527406744E-15  3.434525200352E-15
  2.286521597694E-15  1.515260271613E-15  9.994903069230E-16  6.561832763980E-16
  4.287483413949E-16  2.787954465218E-16  1.804054812026E-16  1.161633703763E-16
  7.442492212563E-17  4.744290295360E-17  3.008856380555E-17  1.898376439935E-17
  1.191480388773E-17  7.438542230165E-18  4.619101367848E-18  2.852777485672E-18
  1.752228457629E-18  1.070279788022E-18  6.500678279609E-19  3.925955902785E-19
  2.357370479574E-19  1.407264943335E-19  8.351395726903E-20  4.926592197600E-20
  2.888732594871E-20  1.683486669373E-20  9.750383217901E-21  5.611913982514E-21
  3.209555496749E-21  1.823854353110E-21  1.029705800389E-21  5.775368318217E-22
  3.217774403656E-22  0.000000000000E+00  0.000000000000E+00  0.000000000000E+00
  0.000000000000E+00
</data>
</radfunc>
</valence-charge>
<pseudocore-charge matching-radius="0.574730556591"
 number-of-continuous-derivatives="4">
<annotation model-charge-form="Teter function with specified parameters" />
<radfunc>
<data npts="290">
  6.419619502738E+01  6.418619628815E+01  6.415631182689E+01  6.410647139508E+01
  6.403721165275E+01  6.394620530145E+01  6.383032229692E+01  6.369776848577E+01
  6.354890721453E+01  6.337555372145E+01  6.318046728894E+01  6.296879738223E+01
  6.271350427904E+01  6.244748678892E+01  6.213448153488E+01  6.182275517987E+01
  6.146487550986E+01  6.112671233599E+01  6.074779366177E+01  6.032350390618E+01
  5.984878420405E+01  5.942900358755E+01  5.897037465525E+01  5.846965094325E+01
  5.792338776868E+01  5.732794636152E+01  5.667950260765E+01  5.615598961791E+01
  5.559867684133E+01  5.500578168100E+01  5.437548925250E+01  5.370596276028E+01
  5.299535603827E+01  5.224182850970E+01  5.144356283174E+01  5.059878549551E+01
  4.970579065109E+01  4.876296741776E+01  4.810599667144E+01  4.742581494990E+01
  4.672205724759E+01  4.599440074619E+01  4.524257059802E+01  4.446634607552E+01
  4.366556708056E+01  4.284014100141E+01  4.199004989854E+01  4.111535799309E+01
  4.021621942295E+01  3.929288622191E+01  3.834571646618E+01  3.737518252081E+01
  3.638187930522E+01  3.536653248261E+01  3.433000646286E+01  3.327331209201E+01
  3.219761388440E+01  3.110423663601E+01  2.999467123966E+01  2.887057950524E+01
  2.773379777134E+01  2.658633907900E+01  2.543039366514E+01  2.426832752260E+01
  2.310267876709E+01  2.193615155005E+01  2.077160726076E+01  2.019101306486E+01
  1.961205277342E+01  1.903512252857E+01  1.846062551577E+01  1.788897131020E+01
  1.732057516726E+01  1.675585725629E+01  1.619524183733E+01  1.563915638079E+01
  1.508803063027E+01  1.454229560925E+01  1.400238257253E+01  1.346872190399E+01
  1.294174196241E+01  1.242186787782E+01  1.190952030113E+01  1.140511411047E+01
  1.090905707811E+01  1.042174850247E+01  9.943577810309E+00  9.474923134722E+00
  9.016149875174E+00  8.567609246529E+00  8.129636824474E+00  7.702551095436E+00
  7.286652019616E+00  6.882219616336E+00  6.489512581412E+00  6.108766946721E+00
  5.740194792570E+00  5.383983023826E+00  5.040292221053E+00  4.709255578085E+00
  4.390977937609E+00  4.085534936268E+00  3.792972270742E+00  3.513305095946E+00
  3.246517566162E+00  2.992562529325E+00  2.751361384043E+00  2.522804108035E+00
  2.306749465677E+00  2.103025401141E+00  1.911429622238E+00  1.731730378575E+00
  1.563667435892E+00  1.406953246640E+00  1.261274314819E+00  1.126292751009E+00
  1.001648011264E+00  8.869588112332E-01  7.818252044917E-01  6.858308116720E-01
  5.985451845828E-01  5.195262871737E-01  4.483230729555E-01  3.844781363781E-01
  3.275304137550E-01  2.770179076366E-01  2.324804071473E-01  1.934621757369E-01
  1.595145771271E-01  1.301986099805E-01  1.050873220370E-01  8.376807517554E-02
  6.584463409185E-02  5.093905305210E-02  3.869333749249E-02  2.877086007147E-02
  2.085751412840E-02  1.466259131766E-02  9.919374420814E-03  6.385440921886E-03
  3.842677780271E-03  2.097012854384E-03  9.778735070133E-04  3.373879399210E-04
  4.934963144555E-05  7.969753392763E-06  1.264464878961E-04  3.353836205123E-04
  5.810935303092E-04  8.238216223505E-04  1.035930262786E-03  1.200080315403E-03
  1.307447403148E-03  1.356008023193E-03  1.348927659737E-03  1.293079131991E-03
  1.197714691001E-03  1.073309979617E-03  9.305920701078E-04  7.797575973139E-04
  6.298807369718E-04  4.885046771475E-04  3.614045366317E-04  2.525046301932E-04
  1.639287788801E-04  9.615919379618E-05  4.827745996303E-05  1.826039549384E-05
  3.304081710745E-06  1.511076881850E-07  5.398936949151E-06  1.577111003916E-05
  2.833751367103E-05  4.067489985996E-05  5.096392293162E-05  5.802386442262E-05
  6.129063243190E-05  6.074728195439E-05  5.681898799979E-05  5.024596639417E-05
  4.194821460834E-05  3.289516462411E-05  2.399152106140E-05  1.598790356606E-05
  9.421693904124E-06  4.590021832526E-06  1.553443409560E-06  1.658908057408E-07
  1.241783691514E-07  1.028936586865E-06  2.448419154749E-06  3.977186251922E-06
  5.283098124579E-06  6.138148711731E-06  6.431146959339E-06  6.162790933264E-06
  5.425953523147E-06  4.375725922555E-06  3.194742068118E-06  2.059436382433E-06
  1.112192046233E-06  4.429595456855E-07  8.210540130698E-08  0.000000000000E+00
  0.000000000000E+00  0.000000000000E+00  0.000000000000E+00  0.000000000000E+00
  0.000000000000E+00  0.000000000000E+00  0.000000000000E+00  0.000000000000E+00
  0.000000000000E+00  0.000000000000E+00  0.000000000000E+00  0.000000000000E+00
  0.000000000000E+00  0.000000000000E+00  0.000000000000E+00  0.000000000000E+00
  0.000000000000E+00  0.000000000000E+00  0.000000000000E+00  0.000000000000E+00
  0.000000000000E+00  0.000000000000E+00  0.000000000000E+00  0.000000000000E+00
  0.000000000000E+00  0.000000000000E+00  0.000000000000E+00  0.000000000000E+00
  0.000000000000E+00  0.000000000000E+00  0.000000000000E+00  0.000000000000E+00
  0.000000000000E+00  0.000000000000E+00  0.000000000000E+00  0.000000000000E+00
  0.000000000000E+00  0.000000000000E+00  0.000000000000E+00  0.000000000000E+00
  0.000000000000E+00  0.000000000000E+00  0.000000000000E+00  0.000000000000E+00
  0.000000000000E+00  0.000000000000E+00  0.000000000000E+00  0.000000000000E+00
  0.000000000000E+00  0.000000000000E+00  0.000000000000E+00  0.000000000000E+00
  0.000000000000E+00  0.000000000000E+00  0.000000000000E+00  0.000000000000E+00
  0.000000000000E+00  0.000000000000E+00  0.000000000000E+00  0.000000000000E+00
  0.000000000000E+00  0.000000000000E+00  0.000000000000E+00  0.000000000000E+00
  0.000000000000E+00  0.000000000000E+00  0.000000000000E+00  0.000000000000E+00
  0.000000000000E+00  0.000000000000E+00  0.000000000000E+00  0.000000000000E+00
  0.000000000000E+00  0.000000000000E+00  0.000000000000E+00  0.000000000000E+00
  0.000000000000E+00  0.000000000000E+00  0.000000000000E+00  0.000000000000E+00
  0.000000000000E+00  0.000000000000E+00  0.000000000000E+00  0.000000000000E+00
  0.000000000000E+00  0.000000000000E+00
</data>
</radfunc>
</pseudocore-charge>
<semilocal-potentials set="scalar_relativistic">
<slps n="3" l="s" rc="1.35662928595" eref="-2.01069280999">
<radfunc>
<data npts="290">
  6.876668056760E+00  6.871333877469E+00  6.855400328739E+00  6.828853660778E+00
  6.792018867372E+00  6.743715805202E+00  6.682368493848E+00  6.612413833783E+00
  6.534128882809E+00  6.443329365347E+00  6.341613945960E+00  6.231807838145E+00
  6.100134590975E+00  5.963809075817E+00  5.804540405157E+00  5.647129881292E+00
  5.467880744463E+00  5.299929509395E+00  5.113356678570E+00  4.906446472895E+00
  4.677411076546E+00  4.477017143890E+00  4.260330255475E+00  4.026394779858E+00
  3.774268083431E+00  3.503035810045E+00  3.211829518639E+00  2.979830985982E+00
  2.735836722925E+00  2.479573182136E+00  2.210806434273E+00  1.929348481121E+00
  1.635063761510E+00  1.327875759276E+00  1.007773606237E+00  6.748185575391E-01
  3.291502029717E-01 -2.900773325231E-02 -2.745675531417E-01 -5.254252927405E-01
 -7.814461035401E-01 -1.042475659869E+00 -1.308339836476E+00 -1.578844486552E+00
 -1.853775326096E+00 -2.132897929233E+00 -2.415957837502E+00 -2.702680784386E+00
 -2.992773034318E+00 -3.285921833281E+00 -3.581795965715E+00 -3.880046410067E+00
 -4.180307082764E+00 -4.482195657891E+00 -4.785314447409E+00 -5.089251324457E+00
 -5.393580670188E+00 -5.697864322912E+00 -6.001652506988E+00 -6.304484718231E+00
 -6.605890542569E+00 -6.905390385455E+00 -7.202496091347E+00 -7.496711435343E+00
 -7.787532473166E+00 -8.074447741045E+00 -8.356938303831E+00 -8.496360089499E+00
 -8.634477657997E+00 -8.771223976690E+00 -8.906531505872E+00 -9.040332186725E+00
 -9.172557428683E+00 -9.303138096626E+00 -9.432004498421E+00 -9.559086373346E+00
 -9.684312882037E+00 -9.807612598597E+00 -9.928913505611E+00 -1.004814299284E+01
 -1.016522786038E+01 -1.028009432725E+01 -1.039266804618E+01 -1.050287412565E+01
 -1.061063716009E+01 -1.071588126923E+01 -1.081853014764E+01 -1.091850712530E+01
 -1.101573524031E+01 -1.111013732461E+01 -1.120163610359E+01 -1.129015431029E+01
 -1.137561481521E+01 -1.145794077199E+01 -1.153705577971E+01 -1.161288406210E+01
 -1.168535066377E+01 -1.175438166356E+01 -1.181990440471E+01 -1.188184774141E+01
 -1.194014230100E+01 -1.199472076077E+01 -1.204551813809E+01 -1.209247209210E+01
 -1.213552323494E+01 -1.217461545008E+01 -1.220969621494E+01 -1.224071692437E+01
 -1.226763321146E+01 -1.229040526129E+01 -1.230899811320E+01 -1.232338194623E+01
 -1.233353234258E+01 -1.233943052286E+01 -1.234106354722E+01 -1.233842447575E+01
 -1.233151248166E+01 -1.232033291060E+01 -1.230489727985E+01 -1.228522321115E+01
 -1.226133429195E+01 -1.223325986043E+01 -1.220103471103E+01 -1.216469871886E+01
 -1.212429638308E+01 -1.207987629218E+01 -1.203149051655E+01 -1.197919393724E+01
 -1.192304352379E+01 -1.186309757791E+01 -1.179941496460E+01 -1.173205435746E+01
 -1.166107352965E+01 -1.158652872772E+01 -1.150847417026E+01 -1.142696171834E+01
 -1.134204076878E+01 -1.125375842446E+01 -1.116215999770E+01 -1.106728990303E+01
 -1.096919299311E+01 -1.086791638717E+01 -1.076351183288E+01 -1.065603863080E+01
 -1.054556713494E+01 -1.043218282174E+01 -1.031599089523E+01 -1.019712136540E+01
 -1.007573450217E+01 -9.952026528358E+00 -9.826235372425E+00 -9.698646257970E+00
 -9.569596862292E+00 -9.439481735069E+00 -9.308755632274E+00 -9.177935394402E+00