<?xml version="1.0" encoding="UTF-8" ?>
<psml version="1.1" energy_unit="hartree" length_unit="bohr"
 uuid="b69b5e60-23d2-11e8-61d4-1e17fa6de233"
 xmlns="http://esl.cecam.org/PSML/ns/1.1">
<provenance creator="ONCVPSP-3.3.0+psml-3.3.0-73 (scalar-relativistic)"
 date="2018-03-09">
<annotation action="semilocal-pseudopotential-generation"
 action-cont="projectors-generation" />
<input-file name="oncvpsp-input">
<![CDATA[# atsym z nc nv iexc psfile
Se 34 5 3 -001012 upf
# n l f
1 0 2.0
2 0 2.0
2 1 6.0
3 0 2.0
3 1 6.0
3 2 10.0
4 0 2.0
4 1 4.0
# lmax
2
# l rc ep ncon nbas qcut
0 1.8 0.0 4 8 5.4
1 1.5 0.0 4 8 7.8
2 1.9 0.0 4 9 9.2
# lloc lpopt rc5 dvloc0
4 5 1.5 0.0
# l nproj debl
0 2 4.5
1 2 4.5
2 2 2.0
# icmod fcfact rcfact
3 5.0 1.4
# epsh1 epsh2 depsh
-12.0 12.0 0.02
# rlmax drl
6.0 0.01
 0
]]>
</input-file>
</provenance>
<pseudo-atom-spec atomic-label="Se" atomic-number="34" z-pseudo="16"
 flavor="Hamann&apos;s oncvpsp" relativity="scalar" spin-dft="no"
 core-corrections="yes">
<annotation pseudo-energy="-111.490153298" />
<exchange-correlation>
<annotation oncvpsp-xc-code="-1012" oncvpsp-xc-type="libxc-interface" />
<libxc-info number-of-functionals="2">
<functional name="Slater exchange (LDA)" type="exchange" id="1" />
<functional name="Perdew &amp; Wang (LDA)" type="correlation" id="12" />
</libxc-info>
</exchange-correlation>
<valence-configuration total-valence-charge="16">
<shell n="3" l="d" occupation="10" />
<shell n="4" l="s" occupation="2" />
<shell n="4" l="p" occupation="4" />
</valence-configuration>
</pseudo-atom-spec>
<grid npts="457">
<annotation type="sampled from oncvpsp log grid"
 recipe="r(i:1..N) = r1*exp(a*(i-1)) + r=0; resampled"
 recipe-cont="r1: scale; a: step" scale="0.147058823529E-04"
 step="0.119285708653E-01" delta="0.500000000000E-02" rmax="43.9674944076" />
<grid-data>
  0.000000000000E+00  5.020670286226E-03  1.002839488868E-02  1.504419146530E-02
  2.027130297145E-02  2.542795312469E-02  3.077510917124E-02  3.593736782770E-02
  4.097622089294E-02  4.616757116937E-02  5.139982494270E-02  5.654650141804E-02
  6.220851581082E-02  6.762595753660E-02  7.264345683615E-02  7.803322885668E-02
  8.382289432527E-02  8.897443012385E-02  9.444256583582E-02  1.002467588636E-01
  1.064076624107E-01  1.116079041230E-01  1.170622864982E-01  1.227832296276E-01
  1.287837605838E-01  1.350775430848E-01  1.416789086070E-01  1.468407994265E-01
  1.521907571722E-01  1.577356338231E-01  1.634825310017E-01  1.694388090690E-01
  1.756120965512E-01  1.820102999105E-01  1.886416136706E-01  1.955145309126E-01
  2.026378541519E-01  2.100207066126E-01  2.150914465530E-01  2.202846144386E-01
  2.256031661696E-01  2.310501290136E-01  2.366286033285E-01  2.423417643273E-01
  2.481928638852E-01  2.541852323908E-01  2.603222806417E-01  2.666075017855E-01
  2.730444733086E-01  2.796368590722E-01  2.863884113976E-01  2.933029732024E-01
  3.003844801874E-01  3.076369630770E-01  3.150645499135E-01  3.226714684067E-01
  3.304620483399E-01  3.384407240350E-01  3.466120368761E-01  3.549806378944E-01
  3.635512904158E-01  3.723288727715E-01  3.813183810757E-01  3.905249320684E-01
  3.999537660283E-01  4.096102497553E-01  4.194998796254E-01  4.245338781809E-01
  4.296282847191E-01  4.347838241357E-01  4.400012300253E-01  4.452812447856E-01
  4.506246197230E-01  4.560321151597E-01  4.615045005416E-01  4.670425545481E-01
  4.726470652027E-01  4.783188299851E-01  4.840586559450E-01  4.898673598163E-01
  4.957457681341E-01  5.016947173517E-01  5.077150539599E-01  5.138076346074E-01
  5.199733262227E-01  5.262130061374E-01  5.325275622111E-01  5.389178929576E-01
  5.453849076731E-01  5.519295265652E-01  5.585526808839E-01  5.652553130546E-01
  5.720383768112E-01  5.789028373329E-01  5.858496713809E-01  5.928798674375E-01
  5.999944258468E-01  6.071943589569E-01  6.144806912644E-01  6.218544595596E-01
  6.293167130743E-01  6.368685136312E-01  6.445109357948E-01  6.522450670243E-01
  6.600720078286E-01  6.679928719225E-01  6.760087863856E-01  6.841208918222E-01
  6.923303425241E-01  7.006383066344E-01  7.090459663140E-01  7.175545179098E-01
  7.261651721247E-01  7.348791541902E-01  7.436977040405E-01  7.526220764889E-01
  7.616535414068E-01  7.707933839037E-01  7.800429045105E-01  7.894034193647E-01
  7.988762603970E-01  8.084627755218E-01  8.181643288281E-01  8.279823007740E-01
  8.379180883833E-01  8.479731054439E-01  8.581487827092E-01  8.684465681017E-01
  8.788679269189E-01  8.894143420420E-01  9.000873141465E-01  9.108883619162E-01
  9.218190222592E-01  9.328808505263E-01  9.440754207327E-01  9.554043257814E-01
  9.668691776908E-01  9.784716078231E-01  9.902132671170E-01  1.002095826322E+00
  1.014120976238E+00  1.026290427953E+00  1.038605913089E+00  1.051069184046E+00
  1.063682014254E+00  1.076446198425E+00  1.089363552806E+00  1.102435915440E+00
  1.115665146425E+00  1.129053128182E+00  1.142601765721E+00  1.156312986909E+00
  1.170188742752E+00  1.184231007665E+00  1.198441779757E+00  1.212823081114E+00
  1.227376958088E+00  1.242105481585E+00  1.257010747364E+00  1.272094876332E+00
  1.287360014848E+00  1.302808335026E+00  1.318442035046E+00  1.334263339467E+00
  1.350274499541E+00  1.366477793535E+00  1.382875527058E+00  1.399470033382E+00
  1.416263673783E+00  1.433258837868E+00  1.450457943923E+00  1.467863439250E+00
  1.485477800521E+00  1.503303534127E+00  1.521343176537E+00  1.539599294655E+00
  1.558074486191E+00  1.576771380025E+00  1.595692636585E+00  1.614840948224E+00
  1.634219039603E+00  1.653829668078E+00  1.673675624095E+00  1.693759731584E+00
  1.714084848363E+00  1.734653866544E+00  1.755469712942E+00  1.776535349498E+00
  1.797853773692E+00  1.819428018976E+00  1.841261155204E+00  1.863356289066E+00
  1.885716564535E+00  1.908345163309E+00  1.931245305269E+00  1.954420248932E+00
  1.977873291919E+00  2.001607771422E+00  2.025627064680E+00  2.049934589456E+00
  2.074533804529E+00  2.099428210183E+00  2.124621348706E+00  2.150116804890E+00
  2.175918206549E+00  2.202029225027E+00  2.228453575728E+00  2.255195018636E+00
  2.282257358860E+00  2.309644447166E+00  2.337360180532E+00  2.365408502699E+00
  2.393793404731E+00  2.422518925588E+00  2.451589152695E+00  2.481008222527E+00
  2.510780321198E+00  2.540909685052E+00  2.571400601273E+00  2.602257408488E+00
  2.633484497390E+00  2.665086311359E+00  2.697067347095E+00  2.729432155260E+00
  2.762185341123E+00  2.795331565217E+00  2.828875543999E+00  2.862822050527E+00
  2.897175915133E+00  2.931942026115E+00  2.967125330428E+00  3.002730834394E+00
  3.038763604406E+00  3.075228767659E+00  3.112131512871E+00  3.149477091026E+00
  3.187270816118E+00  3.225518065911E+00  3.264224282702E+00  3.303394974095E+00
  3.343035713784E+00  3.383152142349E+00  3.423749968057E+00  3.464834967674E+00
  3.506412987286E+00  3.548489943134E+00  3.591071822451E+00  3.634164684321E+00
  3.677774660532E+00  3.721907956459E+00  3.766570851936E+00  3.811769702160E+00
  3.857510938585E+00  3.903801069848E+00  3.950646682687E+00  3.998054442879E+00
  4.046031096193E+00  4.094583469348E+00  4.143718470980E+00  4.193443092632E+00
  4.243764409743E+00  4.294689582660E+00  4.346225857652E+00  4.398380567944E+00
  4.451161134759E+00  4.504575068376E+00  4.558629969197E+00  4.613333528827E+00
  4.668693531173E+00  4.724717853547E+00  4.781414467790E+00  4.838791441403E+00
  4.896856938700E+00  4.955619221965E+00  5.015086652628E+00  5.075267692460E+00
  5.136170904769E+00  5.197804955626E+00  5.260178615094E+00  5.323300758475E+00
  5.387180367577E+00  5.451826531988E+00  5.517248450372E+00  5.583455431776E+00
  5.650456896957E+00  5.718262379721E+00  5.786881528277E+00  5.856324106617E+00
  5.926599995896E+00  5.997719195847E+00  6.069691826197E+00  6.142528128111E+00
  6.216238465649E+00  6.290833327237E+00  6.366323327163E+00  6.442719207089E+00
  6.520031837574E+00  6.598272219625E+00  6.677451486261E+00  6.757580904096E+00
  6.838671874945E+00  6.920735937445E+00  7.003784768694E+00  7.087830185918E+00
  7.172884148149E+00  7.258958757927E+00  7.346066263022E+00  7.434219058178E+00
  7.523429686877E+00  7.613710843119E+00  7.705075373236E+00  7.797536277715E+00
  7.891106713048E+00  7.985799993604E+00  8.081629593528E+00  8.178609148650E+00
  8.276752458434E+00  8.376073487935E+00  8.476586369790E+00  8.578305406228E+00
  8.681245071102E+00  8.785420011956E+00  8.890845052099E+00  8.997535192724E+00
  9.105505615037E+00  9.214771682418E+00  9.325348942607E+00  9.437253129918E+00
  9.550500167477E+00  9.665106169487E+00  9.781087443520E+00  9.898460492843E+00
  1.001724201876E+01  1.013744892298E+01  1.025909831006E+01  1.038220748978E+01
  1.050679397966E+01  1.063287550741E+01  1.076047001350E+01  1.088959565366E+01
  1.102027080151E+01  1.115251405112E+01  1.128634421974E+01  1.142178035037E+01
  1.155884171458E+01  1.169754781515E+01  1.183791838894E+01  1.197997340960E+01
  1.212373309052E+01  1.226921788760E+01  1.241644850226E+01  1.256544588428E+01
  1.271623123489E+01  1.286882600971E+01  1.302325192183E+01  1.317953094489E+01
  1.333768531623E+01  1.349773754003E+01  1.365971039051E+01  1.382362691519E+01
  1.398951043817E+01  1.415738456343E+01  1.432727317819E+01  1.449920045633E+01
  1.467319086181E+01  1.484926915215E+01  1.502746038197E+01  1.520778990656E+01
  1.539028338544E+01  1.557496678606E+01  1.576186638750E+01  1.595100878415E+01
  1.614242088956E+01  1.633612994023E+01  1.653216349951E+01  1.673054946151E+01
  1.693131605504E+01  1.713449184771E+01  1.734010574988E+01  1.754818701888E+01
  1.775876526310E+01  1.797187044626E+01  1.818753289162E+01  1.840578328631E+01
  1.862665268575E+01  1.885017251798E+01  1.907637458820E+01  1.930529108325E+01
  1.953695457625E+01  1.977139803117E+01  2.000865480754E+01  2.024875866523E+01
  2.049174376921E+01  2.073764469445E+01  2.098649643078E+01  2.123833438795E+01
  2.149319440060E+01  2.175111273341E+01  2.201212608621E+01  2.227627159925E+01
  2.254358685844E+01  2.281410990074E+01  2.308787921955E+01  2.336493377018E+01
  2.364531297542E+01  2.392905673113E+01  2.421620541190E+01  2.450679987685E+01
  2.480088147537E+01  2.509849205307E+01  2.539967395771E+01  2.570447004520E+01
  2.601292368574E+01  2.632507876997E+01  2.664097971521E+01  2.696067147179E+01
  2.728419952946E+01  2.761160992381E+01  2.794294924290E+01  2.827826463381E+01
  2.861760380942E+01  2.896101505513E+01  2.930854723579E+01  2.966024980262E+01
  3.001617280025E+01  3.037636687385E+01  3.074088327634E+01  3.110977387566E+01
  3.148309116216E+01  3.186088825611E+01  3.224321891518E+01  3.263013754217E+01
  3.302169919267E+01  3.341795958298E+01  3.381897509798E+01  3.422480279916E+01
  3.463550043275E+01  3.505112643794E+01  3.547173995519E+01  3.589740083466E+01
  3.632816964467E+01  3.676410768041E+01  3.720527697257E+01  3.765174029624E+01
  3.810356117980E+01  3.856080391396E+01  3.902353356092E+01  3.949181596366E+01
  3.996571775522E+01  4.044530636828E+01  4.093065004470E+01  4.142181784524E+01
  4.191887965938E+01  4.242190621529E+01  4.293096908988E+01  4.344614071895E+01
  4.396749440758E+01
</grid-data>
</grid>
<valence-charge total-charge="16" is-unscreening-charge="yes"
 rescaled-to-z-pseudo="no">
<radfunc>
<data npts="457">
  6.602667710528E-03  6.629654897804E-03  6.718213946378E-03  6.892255163208E-03
  7.207108024706E-03  7.711456466813E-03  8.520763970089E-03  9.676298773860E-03
  1.126674831759E-02  1.350987481260E-02  1.653831596771E-02  2.042931137810E-02
  2.596210449194E-02  3.270700621861E-02  4.042692018573E-02  5.053017717166E-02
  6.376284363109E-02  7.787747354090E-02  9.556095953655E-02  1.177152447687E-01
  1.454652247110E-01  1.726242531590E-01  2.051238547681E-01  2.439966382583E-01
  2.904664124440E-01  3.459805541238E-01  4.122468194861E-01  4.701988935793E-01
  5.362963672865E-01  6.116353068234E-01  6.974465701632E-01  7.951092780316E-01
  9.061648525241E-01  1.032331420491E+00  1.175518298900E+00  1.337840181401E+00
  1.521630526759E+00  1.729453508078E+00  1.882728493744E+00  2.048817845905E+00
  2.228662603955E+00  2.423252964983E+00  2.633627635932E+00  2.860872513268E+00
  3.106118573426E+00  3.370538845294E+00  3.655344323859E+00  3.961778672035E+00
  4.291111546093E+00  4.644630369282E+00  5.023630368877E+00  5.429402684449E+00
  5.863220350574E+00  6.326321956191E+00  6.819892786580E+00  7.345043263523E+00
  7.902784516016E+00  8.494000939413E+00  9.119419636701E+00  9.779576683426E+00
  1.047478021949E+01  1.120507044835E+01  1.197017671891E+01  1.276947197921E+01
  1.360192502502E+01  1.446605112214E+01  1.535986175794E+01  1.581712725040E+01
  1.628081447571E+01  1.675051104404E+01  1.722576396288E+01  1.770607827837E+01
  1.819091579751E+01  1.867969390671E+01  1.917178450286E+01  1.966651305429E+01
  2.016315780967E+01  2.066094917405E+01  2.115906927162E+01  2.165665171601E+01
  2.215278160903E+01  2.264649578968E+01  2.313678335525E+01  2.362258647683E+01
  2.410280153124E+01  2.457628057147E+01  2.504183315689E+01  2.549822856420E+01
  2.594419839865E+01  2.637843962398E+01  2.679961802774E+01  2.720637213667E+01
  2.759731759414E+01  2.797105200918E+01  2.832616028284E+01  2.866122041436E+01
  2.897480978496E+01  2.926551191275E+01  2.953192366695E+01  2.977266292398E+01
  2.998637664207E+01  3.017174932456E+01  3.032751183513E+01  3.045245052131E+01
  3.054541659486E+01  3.060533571027E+01  3.063121767482E+01  3.062216621578E+01
  3.057738872275E+01  3.049620587586E+01  3.037806106303E+01  3.022252948351E+01
  3.002932682846E+01  2.979831742466E+01  2.952952172328E+01  2.922312301283E+01
  2.887947323402E+01  2.849909777450E+01  2.808269912333E+01  2.763115926907E+01
  2.714554073127E+01  2.662708612352E+01  2.607721615665E+01  2.549752600401E+01
  2.488977996572E+01  2.425590438724E+01  2.359797880735E+01  2.291822533351E+01
  2.221899626686E+01  2.150276002539E+01  2.077208544177E+01  2.002962454077E+01
  1.927809393082E+01  1.852025497334E+01  1.775889292243E+01  1.699679525471E+01
  1.623672943486E+01  1.548142038520E+01  1.473352794675E+01  1.399562463488E+01
  1.327017400259E+01  1.255950992964E+01  1.186581715429E+01  1.119111335667E+01
  1.053723308855E+01  9.905813822238E+00  9.298284363241E+00  8.715855835898E+00
  8.159515409870E+00  7.630022888248E+00  7.127910226426E+00  6.653483995609E+00
  6.206830747340E+00  5.787825177211E+00  5.396140928437E+00  5.031263821126E+00
  4.692507242260E+00  4.379029386549E+00  4.089852000702E+00  3.823880254812E+00
  3.579923345387E+00  3.356715425965E+00  3.152936463584E+00  2.967232632572E+00
  2.798235880919E+00  2.644582337833E+00  2.504929272949E+00  2.377970366364E+00
  2.262449102356E+00  2.157170156376E+00  2.061008702474E+00  1.972917624688E+00
  1.891932669096E+00  1.817175621532E+00  1.747855049904E+00  1.683262880195E+00
  1.622768044948E+00  1.565812547123E+00  1.511908273634E+00  1.460631968135E+00
  1.411620218332E+00  1.364564128166E+00  1.319203916182E+00  1.275323570916E+00
  1.232745674531E+00  1.191326480635E+00  1.150951308799E+00  1.111530297657E+00
  1.072994540968E+00  1.035292616727E+00  9.983876285357E-01  9.622551166515E-01
  9.268815510705E-01  8.922623295541E-01  8.583993399089E-01  8.252977441956E-01
  7.929627166574E-01  7.613988680248E-01  7.306105149114E-01  7.006013411193E-01
  6.713743152806E-01  6.429315913919E-01  6.152744300738E-01  5.884031361819E-01
  5.623170116165E-01  5.370143222211E-01  5.124922776605E-01  4.887470231950E-01
  4.657736422046E-01  4.435661685440E-01  4.221176075697E-01  4.014199649118E-01
  3.814642820249E-01  3.622406776126E-01  3.437383940053E-01  3.259458477697E-01
  3.088506836657E-01  2.924398312781E-01  2.766995636309E-01  2.616155571562E-01
  2.471729524381E-01  2.333564152005E-01  2.201501970600E-01  2.075381956072E-01
  1.955040134320E-01  1.840310157487E-01  1.731023863279E-01  1.627011814520E-01
  1.528103817241E-01  1.434129414995E-01  1.344918358172E-01  1.260301047110E-01
  1.180108948162E-01  1.104174982130E-01  1.032333884772E-01  9.644225392718E-02
  9.002802808047E-02  8.397491735031E-02  7.826742602948E-02  7.289037862308E-02
  6.782893960460E-02  6.306863068034E-02  5.859534565614E-02  5.439536300791E-02
  5.045535626318E-02  4.676240230548E-02  4.330398771646E-02  4.006801327279E-02
  3.704279671578E-02  3.421707391174E-02  3.157999852010E-02  2.912114028506E-02
  2.683048206391E-02  2.469841570270E-02  2.271573686643E-02  2.087363892739E-02
  1.916370601112E-02  1.757790529547E-02  1.610857865338E-02  1.474843372577E-02
  1.349053450604E-02  1.232829151289E-02  1.125545162366E-02  1.026608763542E-02
  9.354587616623E-03  8.515644107419E-03  7.744243222378E-03  7.035653705076E-03
  6.385415979801E-03  5.789331241691E-03  5.243450622759E-03  4.744064467652E-03
  4.287691749507E-03  3.871069653007E-03  3.491143348627E-03  3.145055979166E-03
  2.830138876925E-03  2.543902027312E-03  2.284024792323E-03  2.048346905046E-03
  1.834859744364E-03  1.641697897043E-03  1.467131012683E-03  1.309555955366E-03
  1.167489254328E-03  1.039559854653E-03  9.245021676918E-04  8.211494198175E-04
  7.284272970605E-04  6.453478822598E-04  5.710038805169E-04  5.045631279917E-04
  4.452633784120E-04  3.924073610805E-04  3.453581036435E-04  3.035345124427E-04
  2.664072028834E-04  2.334945719365E-04  2.043591046212E-04  1.786039061088E-04
  1.558694509252E-04  1.358305406154E-04  1.181934611675E-04  1.026933314608E-04
  8.909163401747E-05  7.717391938044E-05  6.674767551948E-05  5.764035377813E-05
  4.969754300914E-05  4.278128370940E-05  3.676851414984E-05  3.154964070037E-05
  2.702722477317E-05  2.311477904583E-05  1.973566587696E-05  1.682209108959E-05
  1.431418656846E-05  1.215917539580E-05  1.031061353205E-05  8.727702334283E-06
  7.374666491042E-06  6.220192238941E-06  5.236921009913E-06  4.400993938715E-06
  3.691642935857E-06  3.090824300806E-06  2.582891113025E-06  2.154300893173E-06
  1.793355272894E-06  1.489968648423E-06  1.235463020127E-06  1.022386436821E-06
  8.443526697644E-07  6.958999366468E-07  5.723666803752E-07  4.697825811685E-07
  3.847731433707E-07  3.144763506964E-07  2.564700255218E-07  2.087086596161E-07
  1.694686056864E-07  1.373006316590E-07  1.109889431294E-07  8.951587431425E-08
  7.203153456524E-08  5.782777652339E-08  4.631592375213E-08  3.700776066429E-08
  2.949934620462E-08  2.345726552269E-08  1.860698121344E-08  1.472298804241E-08
  1.162051282393E-08  9.148534677344E-09  7.183930624061E-09  5.626577761135E-09
  4.395266388536E-09  3.424298787854E-09  2.660666139694E-09  2.061711592830E-09
  1.593201007013E-09  1.227734608899E-09  9.434429332202E-10  7.229191562203E-10
  5.523474350245E-10  4.207932975475E-10  3.196276196844E-10  2.420604021366E-10
  1.827645270938E-10  1.375730315356E-10  1.032362642145E-10  7.722767225212E-11
  5.758895623268E-11  4.280699685972E-11  3.171634131775E-11  2.342218643196E-11
  1.723974561659E-11  1.264666928355E-11  9.245831092341E-12  6.736318383036E-12
  4.890894065698E-12  3.538545821226E-12  2.551020755009E-12  1.832471431546E-12
  1.311522368200E-12  9.352127927877E-13  6.643885865758E-13  4.702094711739E-13
  3.315112884072E-13  2.328214646136E-13  1.628715459467E-13  1.134865606913E-13
  7.875895030474E-14  5.443655978174E-14  3.747101272415E-14  2.568577515350E-14
  1.753317724459E-14  1.191728207059E-14  8.065292863865E-15  5.434590070502E-15
  3.645812358993E-15  2.434891140969E-15  1.618821897580E-15  1.071344534991E-15
  7.057417455161E-16  4.627268652882E-16  3.019543420290E-16  1.960968378274E-16
  1.267323309461E-16  8.150161601815E-17  5.215321410332E-17  3.320517077098E-17
  2.103359183089E-17  1.325491868683E-17  8.309383906225E-18  5.181555727312E-18
  3.213820522759E-18  1.982539865469E-18  0.000000000000E+00  0.000000000000E+00
  0.000000000000E+00  0.000000000000E+00  0.000000000000E+00  0.000000000000E+00
  0.000000000000E+00  0.000000000000E+00  0.000000000000E+00  0.000000000000E+00
  0.000000000000E+00  0.000000000000E+00  0.000000000000E+00  0.000000000000E+00
  0.000000000000E+00  0.000000000000E+00  0.000000000000E+00  0.000000000000E+00
  0.000000000000E+00  0.000000000000E+00  0.000000000000E+00  0.000000000000E+00
  0.000000000000E+00  0.000000000000E+00  0.000000000000E+00  0.000000000000E+00
  0.000000000000E+00  0.000000000000E+00  0.000000000000E+00  0.000000000000E+00
  0.000000000000E+00  0.000000000000E+00  0.000000000000E+00  0.000000000000E+00
  0.000000000000E+00  0.000000000000E+00  0.000000000000E+00  0.000000000000E+00
  0.000000000000E+00
</data>
</radfunc>
</valence-charge>
<pseudocore-charge matching-radius="0.644510935795"
 number-of-continuous-derivatives="4">
<annotation model-charge-form="Teter function with specified parameters" />
<radfunc>
<data npts="291">
  1.529767485529E+02  1.529617852706E+02  1.529170578280E+02  1.528424465551E+02
  1.527329885473E+02  1.525933627617E+02  1.524154740020E+02  1.522118619476E+02
  1.519830315665E+02  1.517163256504E+02  1.514158915688E+02  1.510895678121E+02
  1.506955033838E+02  1.502843138909E+02  1.498739241479E+02  1.494016816730E+02
  1.488584950761E+02  1.483442193949E+02  1.477667823631E+02  1.471187102820E+02
  1.463917212462E+02  1.457471875883E+02  1.450411860321E+02  1.442681913751E+02
  1.434222524008E+02  1.424969743036E+02  1.414855040925E+02  1.406659512194E+02
  1.397905428836E+02  1.388558655637E+02  1.378583576317E+02  1.367943128698E+02
  1.356598861007E+02  1.344511012879E+02  1.331638625049E+02  1.317939682098E+02
  1.303371293059E+02  1.287889915070E+02  1.277040096377E+02  1.265751942673E+02
  1.254012449703E+02  1.241808706521E+02  1.229127956837E+02  1.215957666850E+02
  1.202285599909E+02  1.188099898391E+02  1.173389173131E+02  1.158142600733E+02
  1.142350029053E+02  1.126002091099E+02  1.109090327536E+02  1.091607317923E+02
  1.073546820718E+02  1.054903921971E+02  1.035675192546E+02  1.015858853522E+02
  9.954549492951E+01  9.744655277027E+01  9.528948262870E+01  9.307494635633E+01
  9.080386339058E+01  8.847743043632E+01  8.609714113959E+01  8.366480551777E+01
  8.118256887355E+01  7.865292988025E+01  7.607875748518E+01  7.477597286574E+01
  7.346330623572E+01  7.214122684883E+01  7.081022959024E+01  6.947083524822E+01
  6.812359073455E+01  6.676906924924E+01  6.540787038515E+01  6.404062016762E+01
  6.266797102474E+01  6.129060168318E+01  5.990921698483E+01  5.852454761935E+01
  5.713734976777E+01  5.574840465229E+01  5.435851798735E+01  5.296851932743E+01
  5.157926130685E+01  5.019161876733E+01  4.880648776880E+01  4.742478447993E+01
  4.604744394441E+01  4.467541871989E+01  4.330967738675E+01  4.195120292426E+01
  4.060099095247E+01  3.926004783846E+01  3.792938866666E+01  3.661003507323E+01
  3.530301294580E+01  3.400934999030E+01  3.273007316799E+01  3.146620600635E+01
  3.021876578915E+01  2.898876063163E+01  2.777718644835E+01  2.658502382225E+01
  2.541323478507E+01  2.426275952042E+01  2.313451300218E+01  2.202938158272E+01
  2.094821954622E+01  1.989184564448E+01  1.886103963361E+01  1.785653883145E+01
  1.687903471715E+01  1.592916959516E+01  1.500753334772E+01  1.411466030018E+01
  1.325102622528E+01  1.241704551255E+01  1.161306853006E+01  1.083937920591E+01
  1.009619285693E+01  9.383654292157E+00  8.701836217812E+00  8.050737970231E+00
  7.430284601686E+00  6.840326342815E+00  6.280638463447E+00  5.750921551394E+00
  5.250802226147E+00  4.779834301344E+00  4.337500406458E+00  3.923214074274E+00
  3.536322296504E+00  3.176108545286E+00  2.841796253425E+00  2.532552740979E+00
  2.247493570419E+00  1.985687306954E+00  1.746160654911E+00  1.527903935356E+00
  1.329876864483E+00  1.151014586829E+00  9.902339121603E-01  8.464397000926E-01
  7.185313321788E-01  6.054092075345E-01  5.059811951319E-01  4.191689738116E-01
  3.439141899497E-01  2.791843626637E-01  2.239784675399E-01  1.773321321768E-01
  1.383223804118E-01  1.060718669604E-01  7.975255033158E-02  5.858875925939E-02
  4.185961643881E-02  2.890079295890E-02  1.910557735409E-02  1.192525445805E-02
  6.868801033253E-03  3.501917213249E-03  1.445424859449E-03  3.730757012908E-04
  8.823284178786E-06  1.236229735029E-04  5.318332379166E-04  1.087298858034E-03
  1.679202300962E-03  2.227773028257E-03  2.679945777227E-03  3.005057747585E-03
  3.190671084413E-03  3.238601102657E-03  3.161222463387E-03  2.978115193286E-03
  2.713100330935E-03  2.391701464719E-03  2.039053950743E-03  1.678268678057E-03
  1.329242437752E-03  1.007892826273E-03  7.257827394356E-04  4.900884254380E-04
  3.038562331070E-04  1.664869950608E-04  7.438368745165E-05  2.169773416506E-05
  1.112047338922E-06  4.604432500990E-06  2.414299361880E-05  5.227516508728E-05
  8.258336721930E-05  1.099923338816E-04  1.309251531433E-04  1.433162522291E-04
  1.464992560958E-04  1.409952659311E-04  1.282321993557E-04  1.102281534688E-04
  8.927125140088E-05  6.762528908628E-05  4.728509899333E-05  2.979846212530E-05
  1.616333647633E-05  6.800913074962E-06  1.597348079944E-06  6.683729071869E-10
  1.154882880231E-06  4.051122892736E-06  7.675807046402E-06  1.113824368207E-05
  1.376435896918E-05  1.514878010747E-05  1.516357709969E-05  1.392779185069E-05
  1.174672571291E-05  9.033226062869E-06  6.224543049354E-06  3.707629239878E-06
  1.763227939744E-06  5.352039421162E-07  2.697190544767E-08  0.000000000000E+00
  0.000000000000E+00  0.000000000000E+00  0.000000000000E+00  0.000000000000E+00
  0.000000000000E+00  0.000000000000E+00  0.000000000000E+00  0.000000000000E+00
  0.000000000000E+00  0.000000000000E+00  0.000000000000E+00  0.000000000000E+00
  0.000000000000E+00  0.000000000000E+00  0.000000000000E+00  0.000000000000E+00
  0.000000000000E+00  0.000000000000E+00  0.000000000000E+00  0.000000000000E+00
  0.000000000000E+00  0.000000000000E+00  0.000000000000E+00  0.000000000000E+00
  0.000000000000E+00  0.000000000000E+00  0.000000000000E+00  0.000000000000E+00
  0.000000000000E+00  0.000000000000E+00  0.000000000000E+00  0.000000000000E+00
  0.000000000000E+00  0.000000000000E+00  0.000000000000E+00  0.000000000000E+00
  0.000000000000E+00  0.000000000000E+00  0.000000000000E+00  0.000000000000E+00
  0.000000000000E+00  0.000000000000E+00  0.000000000000E+00  0.000000000000E+00
  0.000000000000E+00  0.000000000000E+00  0.000000000000E+00  0.000000000000E+00
  0.000000000000E+00  0.000000000000E+00  0.000000000000E+00  0.000000000000E+00
  0.000000000000E+00  0.000000000000E+00  0.000000000000E+00  0.000000000000E+00
  0.000000000000E+00  0.000000000000E+00  0.000000000000E+00  0.000000000000E+00
  0.000000000000E+00  0.000000000000E+00  0.000000000000E+00  0.000000000000E+00
  0.000000000000E+00  0.000000000000E+00  0.000000000000E+00
</data>
</radfunc>
</pseudocore-charge>
<semilocal-potentials set="scalar_relativistic">
<slps n="4" l="s" rc="1.81942801898" eref="-0.642495700661">
<radfunc>
<data npts="291">
  4.430386272763E+01  4.427223886708E+01  4.417788185317E+01  4.402105208608E+01
  4.379225710218E+01  4.350259351846E+01  4.313706092115E+01  4.272342294022E+01
  4.226449697506E+01  4.173738338043E+01  4.115339659688E+01  4.053052718013E+01
  3.979377282138E+01  3.904240200221E+01  3.830960642141E+01  3.748676335978E+01
  3.656624585311E+01  3.571924396863E+01  3.479540821731E+01  3.379126732992E+01
  3.270395508847E+01  3.177278759683E+01  3.078639792067E+01  2.974459810405E+01
  2.864770482384E+01  2.749658951338E+01  2.629272080165E+01  2.535643760285E+01
  2.439277147049E+01  2.340305355206E+01  2.238882057406E+01  2.135181021968E+01
  2.029395323610E+01  1.921736223996E+01  1.812431728584E+01  1.701724836330E+01
  1.589871509096E+01  1.477138397475E+01  1.401629697695E+01  1.325934966160E+01
  1.250137891084E+01  1.174322554111E+01  1.098573071293E+01  1.022973238001E+01
  9.476061816005E+00  8.725540256447E+00  7.978975691774E+00  7.237159845545E+00
  6.500865369129E+00  5.770843281201E+00  5.047820676828E+00  4.332498727077E+00
  3.625550985961E+00  2.927622017172E+00  2.239326348577E+00  1.561247757901E+00
  8.939388884924E-01  2.379211895266E-01 -4.063148293229E-01 -1.038309043010E+00
 -1.657630874325E+00 -2.263878197337E+00 -2.856676006837E+00 -3.435674882944E+00
 -4.000549283178E+00 -4.550995697201E+00 -5.086730702110E+00 -5.348997856546E+00
 -5.607488958576E+00 -5.862173334717E+00 -6.113021190298E+00 -6.360003548551E+00
 -6.603092191221E+00 -6.842259601069E+00 -7.077478906647E+00 -7.308723829733E+00
 -7.535968635807E+00 -7.759188087960E+00 -7.978357404627E+00 -8.193452221532E+00
 -8.404448558242E+00 -8.611322789714E+00 -8.814051623228E+00 -9.012612081088E+00
 -9.206981489466E+00 -9.397137473768E+00 -9.583057960875E+00 -9.764721188611E+00
 -9.942105722778E+00 -1.011519048207E+01 -1.028395477118E+01 -1.044837832232E+01
 -1.060844134548E+01 -1.076412458759E+01 -1.091540940074E+01 -1.106227781961E+01
 -1.120471264822E+01 -1.134269755595E+01 -1.147621718290E+01 -1.160525725432E+01
 -1.172980470411E+01 -1.184984780695E+01 -1.196537631881E+01 -1.207638162526E+01
 -1.218285689711E+01 -1.228479725260E+01 -1.238219992525E+01 -1.247506443655E+01
 -1.256339277223E+01 -1.264718956086E+01 -1.272646225339E+01 -1.280122130197E+01
 -1.287148033633E+01 -1.293725633572E+01 -1.299856979434E+01 -1.305544487790E+01
 -1.310790956899E+01 -1.315599579848E+01 -1.319973956031E+01 -1.323918100673E+01
 -1.327436452096E+01 -1.330533876426E+01 -1.333215669410E+01 -1.335487555034E+01
 -1.337355680624E+01 -1.338826608101E+01 -1.339907301106E+01 -1.340605107687E+01
 -1.340927738295E+01 -1.340883238841E+01 -1.340479958617E+01 -1.339726512922E+01
 -1.338631740291E+01 -1.337204654282E+01 -1.335454389871E+01 -1.333390144558E+01
 -1.331021114422E+01 -1.328356425446E+01 -1.325405060578E+01 -1.322175783120E+01
 -1.318677057201E+01 -1.314916966248E+01 -1.310903130570E+01 -1.306642625329E+01
 -1.302141900416E+01 -1.297406703911E+01 -1.292442011062E+01 -1.287251960854E+01
 -1.281839802447E+01 -1.276207853868E+01 -1.270357475419E+01 -1.264289060223E+01
 -1.258002044215E+01 -1.251494937627E+01 -1.244765379565E+01 -1.237810216732E+01