<?xml version="1.0" encoding="UTF-8" ?>
<psml version="1.1" energy_unit="hartree" length_unit="bohr"
 uuid="4cc87f80-23d3-11e8-625c-7cf9ffff03ef"
 xmlns="http://esl.cecam.org/PSML/ns/1.1">
<provenance creator="ONCVPSP-3.3.0+psml-3.3.0-73 (scalar-relativistic)"
 date="2018-03-09">
<annotation action="semilocal-pseudopotential-generation"
 action-cont="projectors-generation" />
<input-file name="oncvpsp-input">
<![CDATA[# atsym z nc nv iexc psfile
Sn 50 8 3 -001012 upf
# n l f
1 0 2.0
2 0 2.0
2 1 6.0
3 0 2.0
3 1 6.0
3 2 10.0
4 0 2.0
4 1 6.0
4 2 10.0
5 0 2.0
5 1 2.0
# lmax
2
# l rc ep ncon nbas qcut
0 2.25 0.0 4 7 3.4
1 2.6 0.0 4 7 3.4
2 1.85 0.0 4 8 8.4
# lloc lpopt rc5 dvloc0
4 5 1.85 0.0
# l nproj debl
0 2 1.9
1 2 2.5
2 2 2.0
# icmod fcfact rcfact
3 6.5 1.31
# epsh1 epsh2 depsh
-12.0 12.0 0.02
# rlmax drl
6.0 0.01
 0
]]>
</input-file>
</provenance>
<pseudo-atom-spec atomic-label="Sn" atomic-number="50" z-pseudo="14"
 flavor="Hamann&apos;s oncvpsp" relativity="scalar" spin-dft="no"
 core-corrections="yes">
<annotation pseudo-energy="-67.6582682252" />
<exchange-correlation>
<annotation oncvpsp-xc-code="-1012" oncvpsp-xc-type="libxc-interface" />
<libxc-info number-of-functionals="2">
<functional name="Slater exchange (LDA)" type="exchange" id="1" />
<functional name="Perdew &amp; Wang (LDA)" type="correlation" id="12" />
</libxc-info>
</exchange-correlation>
<valence-configuration total-valence-charge="14">
<shell n="4" l="d" occupation="10" />
<shell n="5" l="s" occupation="2" />
<shell n="5" l="p" occupation="2" />
</valence-configuration>
</pseudo-atom-spec>
<grid npts="457">
<annotation type="sampled from oncvpsp log grid"
 recipe="r(i:1..N) = r1*exp(a*(i-1)) + r=0; resampled"
 recipe-cont="r1: scale; a: step" scale="0.100000000000E-04"
 step="0.119285708653E-01" delta="0.500000000000E-02" rmax="44.3197745331" />
<grid-data>
  0.000000000000E+00  5.000886690540E-03  1.010874525337E-02  1.516472982503E-02
  2.019142533776E-02  2.532775607628E-02  3.065384203313E-02  3.579575917496E-02
  4.081475699656E-02  4.598565112489E-02  5.119728757278E-02  5.632368393398E-02
  6.196338756004E-02  6.735948224037E-02  7.322549696456E-02  7.865845337823E-02
  8.449450730050E-02  8.968731867555E-02  9.519926665294E-02  1.010499645334E-01
  1.072602309997E-01  1.125021385341E-01  1.180002229791E-01  1.237670039391E-01
  1.298156128636E-01  1.361598229479E-01  1.428140804965E-01  1.480173298599E-01
  1.534101529953E-01  1.589994567820E-01  1.647923997425E-01  1.707964012112E-01
  1.770191508363E-01  1.834686184287E-01  1.901530641691E-01  1.970810491874E-01
  2.042614465274E-01  2.117034525111E-01  2.168148206685E-01  2.220495976987E-01
  2.274107631856E-01  2.329013686519E-01  2.385245392967E-01  2.442834757734E-01
  2.501814560125E-01  2.562218370865E-01  2.624080571211E-01  2.687436372522E-01
  2.752321836300E-01  2.818773894716E-01  2.886830371630E-01  2.956530004123E-01
  3.027912464542E-01  3.101018383086E-01  3.175889370927E-01  3.252568043899E-01
  3.331098046751E-01  3.411524077992E-01  3.493891915331E-01  3.578248441734E-01
  3.664641672112E-01  3.753120780643E-01  3.843736128771E-01  3.936539293864E-01
  4.031583098575E-01  4.128921640907E-01  4.228610325005E-01  4.279353648905E-01
  4.330705892692E-01  4.382674363404E-01  4.435266455765E-01  4.488489653234E-01
  4.542351529073E-01  4.596859747422E-01  4.652022064391E-01  4.707846329164E-01
  4.764340485114E-01  4.821512570935E-01  4.879370721786E-01  4.937923170448E-01
  4.997178248493E-01  5.057144387475E-01  5.117830120125E-01  5.179244081566E-01
  5.241395010545E-01  5.304291750672E-01  5.367943251680E-01  5.432358570700E-01
  5.497546873548E-01  5.563517436031E-01  5.630279645263E-01  5.697843001006E-01
  5.766217117018E-01  5.835411722423E-01  5.905436663092E-01  5.976301903049E-01
  6.048017525885E-01  6.120593736196E-01  6.194040861030E-01  6.268369351363E-01
  6.343589783579E-01  6.419712860982E-01  6.496749415314E-01  6.574710408298E-01
  6.653606933197E-01  6.733450216396E-01  6.814251618992E-01  6.896022638420E-01
  6.978774910081E-01  7.062520209002E-01  7.147270451510E-01  7.233037696928E-01
  7.319834149291E-01  7.407672159083E-01  7.496564224992E-01  7.586522995692E-01
  7.677561271640E-01  7.769692006900E-01  7.862928310983E-01  7.957283450714E-01
  8.052770852123E-01  8.149404102349E-01  8.247196951577E-01  8.346163314996E-01
  8.446317274776E-01  8.547673082073E-01  8.650245159058E-01  8.754048100966E-01
  8.859096678178E-01  8.965405838316E-01  9.072990708376E-01  9.181866596876E-01
  9.292048996039E-01  9.403553583991E-01  9.516396226999E-01  9.630592981723E-01
  9.746160097504E-01  9.863114018674E-01  9.981471386898E-01  1.010124904354E+00
  1.022246403206E+00  1.034513360045E+00  1.046927520365E+00  1.059490650610E+00
  1.072204538417E+00  1.085070992878E+00  1.098091844793E+00  1.111268946930E+00
  1.124604174293E+00  1.138099424385E+00  1.151756617477E+00  1.165577696887E+00
  1.179564629250E+00  1.193719404801E+00  1.208044037658E+00  1.222540566110E+00
  1.237211052904E+00  1.252057585538E+00  1.267082276565E+00  1.282287263884E+00
  1.297674711050E+00  1.313246807583E+00  1.329005769274E+00  1.344953838505E+00
  1.361093284567E+00  1.377426403982E+00  1.393955520830E+00  1.410682987080E+00
  1.427611182925E+00  1.444742517120E+00  1.462079427325E+00  1.479624380453E+00
  1.497379873019E+00  1.515348431495E+00  1.533532612673E+00  1.551935004025E+00
  1.570558224073E+00  1.589404922762E+00  1.608477781835E+00  1.627779515217E+00
  1.647312869400E+00  1.667080623833E+00  1.687085591319E+00  1.707330618414E+00
  1.727818585835E+00  1.748552408865E+00  1.769535037772E+00  1.790769458225E+00
  1.812258691724E+00  1.834005796024E+00  1.856013865577E+00  1.878286031964E+00
  1.900825464347E+00  1.923635369919E+00  1.946718994358E+00  1.970079622291E+00
  1.993720577758E+00  2.017645224691E+00  2.041856967388E+00  2.066359250996E+00
  2.091155562008E+00  2.116249428752E+00  2.141644421897E+00  2.167344154960E+00
  2.193352284820E+00  2.219672512237E+00  2.246308582384E+00  2.273264285373E+00
  2.300543456797E+00  2.328149978279E+00  2.356087778018E+00  2.384360831355E+00
  2.412973161331E+00  2.441928839267E+00  2.471231985338E+00  2.500886769162E+00
  2.530897410392E+00  2.561268179317E+00  2.592003397468E+00  2.623107438238E+00
  2.654584727497E+00  2.686439744227E+00  2.718677021158E+00  2.751301145412E+00
  2.784316759156E+00  2.817728560266E+00  2.851541302990E+00  2.885759798625E+00
  2.920388916209E+00  2.955433583203E+00  2.990898786202E+00  3.026789571636E+00
  3.063111046496E+00  3.099868379054E+00  3.137066799603E+00  3.174711601198E+00
  3.212808140412E+00  3.251361838097E+00  3.290378180154E+00  3.329862718316E+00
  3.369821070936E+00  3.410258923787E+00  3.451182030873E+00  3.492596215243E+00
  3.534507369826E+00  3.576921458264E+00  3.619844515763E+00  3.663282649952E+00
  3.707242041752E+00  3.751728946253E+00  3.796749693608E+00  3.842310689931E+00
  3.888418418210E+00  3.935079439229E+00  3.982300392499E+00  4.030087997209E+00
  4.078449053176E+00  4.127390441814E+00  4.176919127116E+00  4.227042156641E+00
  4.277766662521E+00  4.329099862471E+00  4.381049060821E+00  4.433621649551E+00
  4.486825109345E+00  4.540667010657E+00  4.595155014785E+00  4.650296874963E+00
  4.706100437462E+00  4.762573642712E+00  4.819724526424E+00  4.877561220741E+00
  4.936091955390E+00  4.995325058855E+00  5.055268959561E+00  5.115932187076E+00
  5.177323373321E+00  5.239451253801E+00  5.302324668846E+00  5.365952564873E+00
  5.430343995651E+00  5.495508123599E+00  5.561454221082E+00  5.628191671735E+00
  5.695729971796E+00  5.764078731457E+00  5.833247676235E+00  5.903246648350E+00
  5.974085608130E+00  6.045774635427E+00  6.118323931053E+00  6.191743818225E+00
  6.266044744044E+00  6.341237280972E+00  6.417332128344E+00  6.494340113884E+00
  6.572272195251E+00  6.651139461594E+00  6.730953135133E+00  6.811724572755E+00
  6.893465267628E+00  6.976186850839E+00  7.059901093049E+00  7.144619906166E+00
  7.230355345040E+00  7.317119609180E+00  7.404925044490E+00  7.493784145024E+00
  7.583709554765E+00  7.674714069422E+00  7.766810638255E+00  7.860012365914E+00
  7.954332514305E+00  8.049784504477E+00  8.146381918530E+00  8.244138501553E+00
  8.343068163571E+00  8.443184981534E+00  8.544503201313E+00  8.647037239728E+00
  8.750801686605E+00  8.855811306844E+00  8.962081042526E+00  9.069626015037E+00
  9.178461527217E+00  9.288603065544E+00  9.400066302330E+00  9.512867097958E+00
  9.627021503134E+00  9.742545761171E+00  9.859456310305E+00  9.977769786029E+00
  1.009750302346E+01  1.021867305974E+01  1.034129713646E+01  1.046539270210E+01
  1.059097741452E+01  1.071806914350E+01  1.084668597322E+01  1.097684620490E+01
  1.110856835936E+01  1.124187117967E+01  1.137677363382E+01  1.151329491743E+01
  1.165145445644E+01  1.179127190992E+01  1.193276717284E+01  1.207596037891E+01
  1.222087190346E+01  1.236752236630E+01  1.251593263469E+01  1.266612382631E+01
  1.281811731223E+01  1.297193471997E+01  1.312759793661E+01  1.328512911185E+01
  1.344455066119E+01  1.360588526913E+01  1.376915589236E+01  1.393438576307E+01
  1.410159839222E+01  1.427081757293E+01  1.444206738380E+01  1.461537219241E+01
  1.479075665872E+01  1.496824573862E+01  1.514786468749E+01  1.532963906374E+01
  1.551359473250E+01  1.569975786929E+01  1.588815496372E+01  1.607881282329E+01
  1.627175857717E+01  1.646701968009E+01  1.666462391625E+01  1.686459940325E+01
  1.706697459609E+01  1.727177829124E+01  1.747903963074E+01  1.768878810631E+01
  1.790105356358E+01  1.811586620634E+01  1.833325660082E+01  1.855325568003E+01
  1.877589474819E+01  1.900120548517E+01  1.922921995099E+01  1.945997059040E+01
  1.969349023749E+01  1.992981212034E+01  2.016896986578E+01  2.041099750417E+01
  2.065592947422E+01  2.090380062791E+01  2.115464623545E+01  2.140850199027E+01
  2.166540401416E+01  2.192538886233E+01  2.218849352867E+01  2.245475545102E+01
  2.272421251643E+01  2.299690306663E+01  2.327286590343E+01  2.355214029427E+01
  2.383476597780E+01  2.412078316953E+01  2.441023256757E+01  2.470315535838E+01
  2.499959322268E+01  2.529958834135E+01  2.560318340145E+01  2.591042160226E+01
  2.622134666149E+01  2.653600282143E+01  2.685443485529E+01  2.717668807355E+01
  2.750280833043E+01  2.783284203040E+01  2.816683613476E+01  2.850483816838E+01
  2.884689622640E+01  2.919305898112E+01  2.954337568889E+01  2.989789619716E+01
  3.025667095152E+01  3.061975100294E+01  3.098718801498E+01  3.135903427116E+01
  3.173534268241E+01  3.211616679460E+01  3.250156079613E+01  3.289157952569E+01
  3.328627847999E+01  3.368571382175E+01  3.408994238762E+01  3.449902169627E+01
  3.491300995662E+01  3.533196607610E+01  3.575594966902E+01  3.618502106504E+01
  3.661924131782E+01  3.705867221364E+01  3.750337628020E+01  3.795341679556E+01
  3.840885779711E+01  3.886976409068E+01  3.933620125976E+01  3.980823567488E+01
  4.028593450298E+01  4.076936571702E+01  4.125859810562E+01  4.175370128289E+01
  4.225474569828E+01  4.276180264666E+01  4.327494427842E+01  4.379424360976E+01
  4.431977453308E+01
</grid-data>
</grid>
<valence-charge total-charge="14" is-unscreening-charge="yes"
 rescaled-to-z-pseudo="no">
<radfunc>
<data npts="457">
  1.994249871865E-03  1.997089413508E-03  2.008528427786E-03  2.036348263490E-03
  2.093427162304E-03  2.201036102678E-03  2.391745729659E-03  2.683775831049E-03
  3.105937805380E-03  3.723498102930E-03  4.581027777226E-03  5.706815204165E-03
  7.336163364894E-03  9.351198139283E-03  1.213879030826E-02  1.536503338057E-02
  1.962595760063E-02  2.420252875295E-02  2.997012887375E-02  3.723587643231E-02
  4.638434453127E-02  5.537795258189E-02  6.618170576010E-02  7.915298716347E-02
  9.471717094764E-02  1.133796864913E-01  1.357399316047E-01  1.553588151448E-01
  1.777996329951E-01  2.034532266133E-01  2.327608918337E-01  2.662200101442E-01
  3.043900922129E-01  3.478992056157E-01  3.974507377227E-01  4.538304180185E-01
  5.179134907157E-01  5.906718872632E-01  6.445237983356E-01  7.030528286368E-01
  7.666271820999E-01  8.356383056539E-01  9.105014573537E-01  9.916561242527E-01
  1.079566254701E+00  1.174720265111E+00  1.277630776273E+00  1.388834029071E+00
  1.508888923972E+00  1.638375623074E+00  1.777893647800E+00  1.928059399775E+00
  2.089503027060E+00  2.262864553045E+00  2.448789181135E+00  2.647921685174E+00
  2.860899793799E+00  3.088346476889E+00  3.330861044573E+00  3.589008974410E+00
  3.863310390886E+00  4.154227134146E+00  4.462148372403E+00  4.787374735747E+00
  5.130100978686E+00  5.490397215652E+00  5.868188818530E+00  6.063577262984E+00
  6.263235118680E+00  6.467102700603E+00  6.675107118424E+00  6.887161546078E+00
  7.103164488818E+00  7.322999051421E+00  7.546532211598E+00  7.773614103059E+00
  8.004077313086E+00  8.237736199890E+00  8.474386235452E+00  8.713803379965E+00
  8.955743494418E+00  9.199941798296E+00  9.446112379759E+00  9.693947766072E+00
  9.943118562419E+00  1.019327316759E+01  1.044403757529E+01  1.069501527021E+01
  1.094578722804E+01  1.119591202883E+01  1.144492609335E+01  1.169234405174E+01
  1.193765925406E+01  1.218034443185E+01  1.241985251970E+01  1.265561764531E+01
  1.288705629608E+01  1.311356866938E+01  1.333454021304E+01  1.354934336153E+01
  1.375733947191E+01  1.395788096266E+01  1.415031365665E+01  1.433397932804E+01
  1.450821845079E+01  1.467237314462E+01  1.482579031180E+01  1.496782495600E+01
  1.509784367145E+01  1.521522828854E+01  1.531937965848E+01  1.540972155744E+01
  1.548570468697E+01  1.554681074489E+01  1.559255653775E+01  1.562249810291E+01
  1.563623480564E+01  1.563341337366E+01  1.561373182954E+01  1.557694327867E+01
  1.552285950907E+01  1.545135435761E+01  1.536236679651E+01  1.525590369326E+01
  1.513204219751E+01  1.499093170930E+01  1.483279538440E+01  1.465793113510E+01
  1.446671208773E+01  1.425958646220E+01  1.403707684372E+01  1.379977882236E+01
  1.354835898269E+01  1.328355223277E+01  1.300615847001E+01  1.271703858949E+01
  1.241710984994E+01  1.210734062159E+01  1.178874455012E+01  1.146237418062E+01
  1.112931409505E+01  1.079067362639E+01  1.044757922102E+01  1.010116652954E+01
  9.752572312960E+00  9.402926257376E+00  9.053342794834E+00  8.704913031109E+00
  8.358696882452E+00  8.015715522857E+00  7.676944240957E+00  7.343305801249E+00
  7.015664397947E+00  6.694820281513E+00  6.381505127846E+00  6.076378208420E+00
  5.780023406652E+00  5.492947111615E+00  5.215577005276E+00  4.948261744150E+00
  4.691271520830E+00  4.444799475921E+00  4.208963916607E+00  3.983811285040E+00
  3.769319808093E+00  3.565403750250E+00  3.371918183629E+00  3.188664183573E+00
  3.015394355007E+00  2.851818593836E+00  2.697609988914E+00  2.552410773498E+00
  2.415838240262E+00  2.287490540572E+00  2.166952296565E+00  2.053799963068E+00
  1.947606885272E+00  1.847948006859E+00  1.754404191692E+00  1.666566129847E+00
  1.584037805596E+00  1.506439510727E+00  1.433410391440E+00  1.364610521019E+00
  1.299722493803E+00  1.238452539069E+00  1.180531156479E+00  1.125713278394E+00
  1.073777968720E+00  1.024527673564E+00  9.777870458484E-01  9.334006308659E-01
  8.912274334130E-01  8.511346933792E-01  8.129969761698E-01  7.766969672680E-01
  7.421248609103E-01  7.091781887251E-01  6.777615193822E-01  6.477861176477E-01
  6.191695646449E-01  5.918353482638E-01  5.657124334208E-01  5.407348222250E-01
  5.168411142461E-01  4.939740769764E-01  4.720802362287E-01  4.511094956128E-01
  4.310148725856E-01  4.117525997791E-01  3.932824181606E-01  3.755673716781E-01
  3.585733830272E-01  3.422689807427E-01  3.266249714110E-01  3.116141284984E-01
  2.972108943952E-01  2.833911027254E-01  2.701317269919E-01  2.574106612117E-01
  2.452065858354E-01  2.334990726484E-01  2.222688297307E-01  2.114976674694E-01
  2.011683464632E-01  1.912645233286E-01  1.817706696098E-01  1.726720018857E-01
  1.639544172714E-01  1.556044344942E-01  1.476091402822E-01  1.399561407514E-01
  1.326335175497E-01  1.256297884175E-01  1.189338718977E-01  1.125350559005E-01
  1.064229698392E-01  1.005875600573E-01  9.501906827782E-02  8.970801281039E-02
  8.464517226474E-02  7.982157152816E-02  7.522846977609E-02  7.085735029687E-02
  6.669991192393E-02  6.274806188106E-02  5.899390985926E-02  5.542976315596E-02
  5.204812272053E-02  4.884167996190E-02  4.580331418662E-02  4.292609054765E-02
  4.020325839530E-02  3.762824993332E-02  3.519467909335E-02  3.289634055113E-02
  3.072720881780E-02  2.868143734802E-02  2.675335761561E-02  2.493747811486E-02
  2.322848325329E-02  2.162123210805E-02  2.011075702442E-02  1.869226204025E-02
  1.736112112553E-02  1.611287623029E-02  1.494323513832E-02  1.384806912761E-02
  1.282341044135E-02  1.186544957590E-02  1.097053239454E-02  1.013515707719E-02
  9.355970918153E-03  8.629766984794E-03  7.953480650964E-03  7.324186019577E-03
  6.739092249009E-03  6.195539798141E-03  5.690996604780E-03  5.223054211966E-03
  4.789423856273E-03  4.387932531762E-03  4.016519042625E-03  3.673230056916E-03
  3.356216173041E-03  3.063728009902E-03  2.794112330820E-03  2.545808210528E-03
  2.317343253714E-03  2.107329872817E-03  1.914461631921E-03  1.737509662876E-03
  1.575319158996E-03  1.426805950965E-03  1.290953168922E-03  1.166807994023E-03
  1.053478502201E-03  9.501306022682E-04  8.559850699849E-04  7.703146792440E-04
  6.924414310760E-04  6.217338807846E-04  5.576045631544E-04  4.995075153521E-04
  4.469358968446E-04  3.994197054002E-04  3.565235880054E-04  3.178447453278E-04
  2.830109281734E-04  2.516785242321E-04  2.235307332688E-04  1.982758287993E-04
  1.756455041903E-04  1.553933010370E-04  1.372931175988E-04  1.211377950156E-04
  1.067377789758E-04  9.391985446905E-05  8.252595122619E-05  7.241201742570E-05
  6.344695923214E-05  5.551164372288E-05  4.849796275821E-05  4.230795535413E-05
  3.685298612720E-05  3.205297739606E-05  2.783569254528E-05  2.413606828279E-05
  2.089559345262E-05  1.806173210035E-05  1.558738852821E-05  1.343041212085E-05
  1.155313977136E-05  9.921973788806E-06  8.506993224450E-06  7.281596612923E-06
  6.222174186474E-06  5.307807685344E-06  4.519995954389E-06  3.842404585234E-06
  3.260637933982E-06  2.762031916595E-06  2.335466056931E-06  1.971193335849E-06
  1.660686463350E-06  1.396499268992E-06  1.172141978559E-06  9.819692167427E-07
  8.210796461660E-07  6.852262221409E-07  5.707361098286E-07  4.744393757488E-07
  3.936056286641E-07  3.258878455538E-07  2.692726765695E-07  2.220365784026E-07
  1.827071783150E-07  1.500293211292E-07  1.229352987143E-07  1.005188059294E-07
  8.201220861696E-08  6.676674811015E-08  5.423534288135E-08  4.395768149367E-08
  3.554733199716E-08  2.868062144086E-08  2.308706535197E-08  1.854115097831E-08
  1.485529991736E-08  1.187385558684E-08  9.467958949913E-09  7.531192118595E-09
  5.975884042320E-09  4.729985567675E-09  3.734432846328E-09  2.940928485619E-09
  2.310079089088E-09  1.809836026467E-09  1.414193502877E-09  1.102104357940E-09
  8.565796039565E-10  6.639425890640E-10  5.132129210831E-10  3.955989794730E-10
  3.040810395941E-10  2.330697928411E-10  1.781274204491E-10  1.357404151327E-10
  1.031350856645E-10  7.812816313122E-11  5.900618786403E-11  4.442842309294E-11
  3.334894190473E-11  2.495429158824E-11  1.861377455320E-11  1.383991572433E-11
  1.025712832267E-11  7.576956844536E-12  5.578579570095E-12  4.093503174234E-12
  2.993587617186E-12  2.181707841309E-12  1.584496164045E-12  1.146720945499E-12
  8.269476000249E-13  5.942010760076E-13  4.254076939848E-13  3.034413332952E-13
  2.156365688768E-13  1.526612829803E-13  1.076649939146E-13  7.563787151472E-14
  5.293014015620E-14  3.689311298257E-14  2.561211039109E-14  1.770852009572E-14
  1.219367985118E-14  8.361446926208E-15  5.709531387812E-15  3.882128009238E-15
  2.628253850853E-15  1.771618783674E-15  1.188928978333E-15  7.943302604861E-16
  5.283022507039E-16  3.497649529412E-16  2.304934697897E-16  1.511837823251E-16
  9.869416497237E-17  6.411986281527E-17  4.145561618464E-17  2.667094404125E-17
  1.707386550140E-17  1.087521108466E-17  6.891749823083E-18  4.344907682548E-18
  2.724982898443E-18  1.700011182048E-18  1.054913310537E-18  6.510743753862E-19
  3.996360722216E-19  2.439438807242E-19  1.480732695753E-19  8.937055249758E-20
  5.363049551124E-20  3.199599687327E-20  0.000000000000E+00  0.000000000000E+00
  0.000000000000E+00  0.000000000000E+00  0.000000000000E+00  0.000000000000E+00
  0.000000000000E+00  0.000000000000E+00  0.000000000000E+00  0.000000000000E+00
  0.000000000000E+00
</data>
</radfunc>
</valence-charge>
<pseudocore-charge matching-radius="0.885909667818"
 number-of-continuous-derivatives="4">
<annotation model-charge-form="Teter function with specified parameters" />
<radfunc>
<data npts="290">
  9.448883678606E+01  9.448329364778E+01  9.446618933271E+01  9.443787633392E+01
  9.439851071861E+01  9.434674758681E+01  9.428077358807E+01  9.420522409650E+01
  9.412027220988E+01  9.402119872455E+01  9.390951796981E+01  9.378811904021E+01
  9.364138811020E+01  9.348812714026E+01  9.330731314146E+01  9.312671614976E+01
  9.291873300223E+01  9.272156666796E+01  9.249989033461E+01  9.225072398891E+01
  9.197074327061E+01  9.172209719625E+01  9.144928127412E+01  9.115002597204E+01
  9.082186542127E+01  9.046212401049E+01  9.006790287207E+01  8.974773275224E+01
  8.940499479776E+01  8.903819268145E+01  8.864574537932E+01  8.822598468390E+01
  8.777715305877E+01  8.729740192707E+01  8.678479050106E+01  8.623728527557E+01
  8.565276032562E+01  8.502899856750E+01  8.459022403249E+01  8.413228345292E+01
  8.365445627018E+01  8.315600657850E+01  8.263618410449E+01  8.209422537049E+01
  8.152935505901E+01  8.094078759662E+01  8.032772897659E+01  7.968937884059E+01
  7.902493284057E+01  7.833358530257E+01  7.761453221520E+01  7.686697456570E+01
  7.609012204697E+01  7.528319715905E+01  7.444543972839E+01  7.357611186736E+01
  7.267450339618E+01  7.173993774726E+01  7.077177837075E+01  6.976943565683E+01
  6.873237438763E+01  6.766012172698E+01  6.655227575163E+01  6.540851452124E+01
  6.422860567744E+01  6.301241655376E+01  6.175992476856E+01  6.112009124737E+01
  6.047122926168E+01  5.981337201067E+01  5.914656172316E+01  5.847085003131E+01
  5.778629834753E+01  5.709297824363E+01  5.639097183139E+01  5.568037214356E+01
  5.496128351424E+01  5.423382195748E+01  5.349811554289E+01  5.275430476694E+01
  5.200254291854E+01  5.124299643735E+01  5.047584526329E+01  4.970128317538E+01
  4.891951811837E+01  4.813077251487E+01  4.733528356138E+01  4.653330350575E+01
  4.572509990401E+01  4.491095585428E+01  4.409117020526E+01  4.326605773675E+01
  4.243594930978E+01  4.160119198343E+01  4.076214909577E+01  3.991920030592E+01
  3.907274159451E+01  3.822318521940E+01  3.737095962386E+01  3.651650929405E+01
  3.566029456285E+01  3.480279135708E+01  3.394449088499E+01  3.308589926119E+01
  3.222753706609E+01  3.136993883719E+01  3.051365248931E+01  2.965923866161E+01
  2.880726998872E+01  2.795833029415E+01  2.711301370391E+01  2.627192367891E+01
  2.543567196477E+01  2.460487745816E+01  2.378016498925E+01  2.296216402012E+01
  2.215150725955E+01  2.134882919527E+01  2.055476454505E+01  1.976994662887E+01
  1.899500566503E+01  1.823056699345E+01  1.747724923080E+01  1.673566236203E+01
  1.600640577457E+01  1.529006624143E+01  1.458721586107E+01  1.389840996218E+01
  1.322418498284E+01  1.256505633411E+01  1.192151625909E+01  1.129403169959E+01
  1.068304218284E+01  1.008895774219E+01  9.512156885826E+00  8.952984628759E+00
  8.411750603575E+00  7.888727266208E+00  7.384148213262E+00  6.898206627758E+00
  6.431053870289E+00  5.982798232595E+00  5.553503870327E+00  5.143189931419E+00
  4.751829895912E+00  4.379351142215E+00  4.025634753832E+00  3.690515579228E+00
  3.373782556047E+00  3.075179309091E+00  2.794405029443E+00  2.531115639856E+00
  2.284925249016E+00  2.055407894513E+00  1.842099571452E+00  1.644500540446E+00
  1.462077905467E+00  1.294268448591E+00  1.140481705183E+00  1.000103259529E+00
  8.724982374093E-01  7.570149686677E-01  6.529887895390E-01  5.597459514240E-01
  4.766075999884E-01  4.028937860210E-01  3.379274674674E-01  2.810384605339E-01
  2.315672968039E-01  1.888689429884E-01  1.523163403002E-01  1.213037215406E-01
  9.524966585919E-02  7.359985380698E-02  5.582948875561E-02  4.144535498624E-02
  2.998748772758E-02  2.103043608381E-02  1.418410606361E-02  9.094177697900E-03
  5.442097394105E-03  2.944654072719E-03  1.353155105791E-03  4.522254473620E-04
  5.826042274270E-05  1.756923009917E-05  2.042521064397E-04  5.178591290497E-04
  8.808825838382E-04  1.236137575580E-03  1.544086951353E-03  1.780166562710E-03
  1.932165351704E-03  1.997711706135E-03  1.981913038296E-03  1.895189701943E-03
  1.751337332701E-03  1.565843689797E-03  1.354477352695E-03  1.132156487142E-03
  9.120966746515E-04  7.052278488171E-04  5.198620556702E-04  3.615863941613E-04
  2.333494063360E-04  1.357046353357E-04  6.717224815508E-05  2.467864456838E-05
  4.034868683435E-06  4.173330439895E-07  8.818686903051E-06  2.444234699102E-05
  4.302091593693E-05  6.104603163330E-05  7.590467081321E-05  8.592410975773E-05
  9.033418028677E-05  8.916075563719E-05  8.306824389130E-05  7.317104728141E-05
  6.083437966875E-05  4.748357229636E-05  3.443822426087E-05  2.278357571062E-05
  1.328670343190E-05  6.360029281717E-06  2.069683249453E-06  1.819423619949E-07
  2.376719263404E-07  1.642713550762E-06  3.761639623881E-06  6.003211655722E-06
  7.888065703406E-06  9.092286244576E-06  9.464198886803E-06  9.015435154510E-06
  7.890625600437E-06  6.322551191352E-06  4.580936685764E-06  2.923172125082E-06
  1.554146828752E-06  6.002946210111E-07  1.002409893987E-07  0.000000000000E+00
  0.000000000000E+00  0.000000000000E+00  0.000000000000E+00  0.000000000000E+00
  0.000000000000E+00  0.000000000000E+00  0.000000000000E+00  0.000000000000E+00
  0.000000000000E+00  0.000000000000E+00  0.000000000000E+00  0.000000000000E+00
  0.000000000000E+00  0.000000000000E+00  0.000000000000E+00  0.000000000000E+00
  0.000000000000E+00  0.000000000000E+00  0.000000000000E+00  0.000000000000E+00
  0.000000000000E+00  0.000000000000E+00  0.000000000000E+00  0.000000000000E+00
  0.000000000000E+00  0.000000000000E+00  0.000000000000E+00  0.000000000000E+00
  0.000000000000E+00  0.000000000000E+00  0.000000000000E+00  0.000000000000E+00
  0.000000000000E+00  0.000000000000E+00  0.000000000000E+00  0.000000000000E+00
  0.000000000000E+00  0.000000000000E+00  0.000000000000E+00  0.000000000000E+00
  0.000000000000E+00  0.000000000000E+00  0.000000000000E+00  0.000000000000E+00
  0.000000000000E+00  0.000000000000E+00
</data>
</radfunc>
</pseudocore-charge>
<semilocal-potentials set="scalar_relativistic">
<slps n="5" l="s" rc="2.27326428537" eref="-0.397282447831">
<radfunc>
<data npts="290">
  3.497185440693E+01  3.495207991359E+01  3.489115391148E+01  3.479060580696E+01
  3.465143180871E+01  3.446952586395E+01  3.423947039897E+01  3.397845795161E+01
  3.368801928592E+01  3.335332127413E+01  3.298112477836E+01  3.258253391712E+01
  3.210890479536E+01  3.162345506791E+01  3.106253546740E+01  3.051464440411E+01
  2.989844592007E+01  2.932839252062E+01  2.870326005207E+01  2.801978200035E+01
  2.727496328265E+01  2.663317720470E+01  2.594935972671E+01  2.522267497030E+01
  2.445259640961E+01  2.363895483466E+01  2.278198472712E+01  2.211121462872E+01
  2.141690992646E+01  2.069969582724E+01  1.996036392486E+01  1.919987597692E+01
  1.841936549999E+01  1.762013696587E+01  1.680366242941E+01  1.597157547647E+01
  1.512566244922E+01  1.426785098155E+01  1.369037642692E+01  1.310916163336E+01
  1.252486308999E+01  1.193815424647E+01  1.134972280118E+01  1.076026787043E+01
  1.017049706518E+01  9.581123503807E+00  8.992862789917E+00  8.406429985215E+00
  7.822536607456E+00  7.241887682985E+00  6.665178882550E+00  6.093093767659E+00
  5.526301172876E+00  4.965452747208E+00  4.411180675098E+00  3.864095594605E+00
  3.324784727154E+00  2.793810229881E+00  2.271707778103E+00  1.758985381866E+00
  1.256122437032E+00  7.635690078058E-01  2.817453342956E-01 -1.889584445749E-01
 -6.481823654804E-01 -1.095596527930E+00 -1.530900812374E+00 -1.743926002918E+00
 -1.953824449515E+00 -2.160566800502E+00 -2.364125463169E+00 -2.564474581139E+00
 -2.761590010753E+00 -2.955449296665E+00 -3.146031646868E+00 -3.333317907352E+00
 -3.517290536629E+00 -3.697933580340E+00 -3.875232646150E+00 -4.049174879177E+00
 -4.219748938148E+00 -4.386944972516E+00 -4.550754600758E+00 -4.711170890040E+00
 -4.868188337496E+00 -5.021802853291E+00 -5.172011745684E+00 -5.318813708280E+00
 -5.462208809647E+00 -5.602198485476E+00 -5.738785533445E+00 -5.871974110936E+00
 -6.001769735740E+00 -6.128179289866E+00 -6.251211026569E+00 -6.370874580648E+00
 -6.487180982113E+00 -6.600142673218E+00 -6.709773528885E+00 -6.816088880493E+00
 -6.919105542969E+00 -7.018841845089E+00 -7.115317662854E+00 -7.208554455768E+00
 -7.298575305789E+00 -7.385404958675E+00 -7.469069867415E+00 -7.549598237330E+00
 -7.627020072434E+00 -7.701367222509E+00 -7.772673430346E+00 -7.840974378487E+00
 -7.906307734754E+00 -7.968713195779E+00 -8.028232527652E+00 -8.084909602755E+00
 -8.138790431761E+00 -8.189923189703E+00 -8.238358234946E+00 -8.284148119850E+00
 -8.327347591804E+00 -8.368013583316E+00 -8.406205189750E+00 -8.441983633291E+00
 -8.475412211696E+00 -8.506556230367E+00 -8.535482916326E+00 -8.562261312645E+00
 -8.586962152008E+00 -8.609657708078E+00 -8.630421623512E+00 -8.649328713537E+00
 -8.666454744195E+00 -8.681876184529E+00 -8.695669932209E+00 -8.707913012339E+00
 -8.718682249486E+00 -8.728053913259E+00 -8.736103338146E+00 -8.742904518668E+00
 -8.748529681335E+00 -8.753048835317E+00 -8.756529304204E+00 -8.759035241714E+00
 -8.760627134694E+00 -8.761361297290E+00 -8.761289360661E+00 -8.760457763149E+00
 -8.758907246318E+00 -8.756672362789E+00 -8.753781002286E+00 -8.750253942744E+00
 -8.746104433767E+00 -8.741337820059E+00 -8.735951212755E+00 -8.729933216759E+00