<?xml version="1.0" encoding="UTF-8" ?>
<psml version="1.1" energy_unit="hartree" length_unit="bohr"
 uuid="dc351210-23d2-11e8-5d50-42777bfb4aa3"
 xmlns="http://esl.cecam.org/PSML/ns/1.1">
<provenance creator="ONCVPSP-3.3.0+psml-3.3.0-73 (scalar-relativistic)"
 date="2018-03-09">
<annotation action="semilocal-pseudopotential-generation"
 action-cont="projectors-generation" />
<input-file name="oncvpsp-input">
<![CDATA[# atsym z nc nv iexc psfile
Sr 38 6 3 -001012 upf
# n l f
1 0 2.0
2 0 2.0
2 1 6.0
3 0 2.0
3 1 6.0
3 2 10.0
4 0 2.0
4 1 6.0
5 0 2.0
# lmax
2
# l rc ep ncon nbas qcut
0 1.65 0.0 4 8 6.7
1 1.3 0.0 4 8 8.3
2 1.5 0.0 4 8 7.8
# lloc lpopt rc5 dvloc0
4 5 1.3 0.0
# l nproj debl
0 2 1.0
1 2 3.0
2 2 3.5
# icmod fcfact rcfact
3 6.0 1.35
# epsh1 epsh2 depsh
-12.0 12.0 0.02
# rlmax drl
6.0 0.01
 0
]]>
</input-file>
</provenance>
<pseudo-atom-spec atomic-label="Sr" atomic-number="38" z-pseudo="10"
 flavor="Hamann&apos;s oncvpsp" relativity="scalar" spin-dft="no"
 core-corrections="yes">
<annotation pseudo-energy="-31.0045162011" />
<exchange-correlation>
<annotation oncvpsp-xc-code="-1012" oncvpsp-xc-type="libxc-interface" />
<libxc-info number-of-functionals="2">
<functional name="Slater exchange (LDA)" type="exchange" id="1" />
<functional name="Perdew &amp; Wang (LDA)" type="correlation" id="12" />
</libxc-info>
</exchange-correlation>
<valence-configuration total-valence-charge="10">
<shell n="4" l="s" occupation="2" />
<shell n="4" l="p" occupation="6" />
<shell n="5" l="s" occupation="2" />
</valence-configuration>
</pseudo-atom-spec>
<grid npts="457">
<annotation type="sampled from oncvpsp log grid"
 recipe="r(i:1..N) = r1*exp(a*(i-1)) + r=0; resampled"
 recipe-cont="r1: scale; a: step" scale="0.131578947368E-04"
 step="0.119285708653E-01" delta="0.500000000000E-02" rmax="44.3233076602" />
<grid-data>
  0.000000000000E+00  5.001285356115E-03  1.010955111220E-02  1.516593874179E-02
  2.019303497754E-02  2.532977517910E-02  3.065628572608E-02  3.579861277629E-02
  4.081801070727E-02  4.598931705399E-02  5.120136896821E-02  5.632817400049E-02
  6.196832721796E-02  6.736485206945E-02  7.323133442633E-02  7.866472394973E-02
  8.450124311626E-02  8.969446845692E-02  9.520685584117E-02  1.010580201333E-01
  1.072687816757E-01  1.125111070896E-01  1.180096298362E-01  1.237768705182E-01
  1.298259616315E-01  1.361706774698E-01  1.428254654891E-01  1.480291296502E-01
  1.534223826959E-01  1.590121320562E-01  1.648055368242E-01  1.708100169258E-01
  1.770332626221E-01  1.834832443594E-01  1.901682229770E-01  1.970967602872E-01
  2.042777300411E-01  2.117203292939E-01  2.168321049244E-01  2.220672992657E-01
  2.274288921392E-01  2.329199353110E-01  2.385435542291E-01  2.443029498024E-01
  2.502014002225E-01  2.562422628294E-01  2.624289760232E-01  2.687650612203E-01
  2.752541248584E-01  2.818998604490E-01  2.887060506796E-01  2.956765695673E-01
  3.028153846629E-01  3.101265593102E-01  3.176142549582E-01  3.252827335299E-01
  3.331363598482E-01  3.411796041204E-01  3.494170444823E-01  3.578533696043E-01
  3.664933813600E-01  3.753419975595E-01  3.844042547486E-01  3.936853110753E-01
  4.031904492259E-01  4.129250794320E-01  4.228947425498E-01  4.279694794604E-01
  4.331051132139E-01  4.383023745725E-01  4.435620030674E-01  4.488847471042E-01
  4.542713640694E-01  4.597226204382E-01  4.652392918835E-01  4.708221633861E-01
  4.764720293467E-01  4.821896936989E-01  4.879759700233E-01  4.938316816636E-01
  4.997576618435E-01  5.057547537857E-01  5.118238108311E-01  5.179656965611E-01
  5.241812849198E-01  5.304714603388E-01  5.368371178629E-01  5.432791632772E-01
  5.497985132366E-01  5.563960953954E-01  5.630728485402E-01  5.698297227226E-01
  5.766676793953E-01  5.835876915481E-01  5.905907438466E-01  5.976778327728E-01
  6.048499667661E-01  6.121081663673E-01  6.194534643637E-01  6.268869059360E-01
  6.344095488073E-01  6.420224633929E-01  6.497267329537E-01  6.575234537491E-01
  6.654137351941E-01  6.733987000164E-01  6.814794844166E-01  6.896572382296E-01
  6.979331250884E-01  7.063083225894E-01  7.147840224605E-01  7.233614307300E-01
  7.320417678988E-01  7.408262691136E-01  7.497161843429E-01  7.587127785551E-01
  7.678173318977E-01  7.770311398805E-01  7.863555135591E-01  7.957917797218E-01
  8.053412810784E-01  8.150053764514E-01  8.247854409688E-01  8.346828662604E-01
  8.446990606555E-01  8.548354493834E-01  8.650934747760E-01  8.754745964733E-01
  8.859802916310E-01  8.966120551306E-01  9.073713997921E-01  9.182598565896E-01
  9.292789748687E-01  9.404303225671E-01  9.517154864379E-01  9.631360722752E-01
  9.746937051425E-01  9.863900296042E-01  9.982267099595E-01  1.010205430479E+00
  1.022327895645E+00  1.034595830392E+00  1.047010980357E+00  1.059575112121E+00
  1.072290013467E+00  1.085157493629E+00  1.098179383552E+00  1.111357536155E+00
  1.124693826589E+00  1.138190152508E+00  1.151848434338E+00  1.165670615550E+00
  1.179658662936E+00  1.193814566892E+00  1.208140341694E+00  1.222638025795E+00
  1.237309682104E+00  1.252157398289E+00  1.267183287069E+00  1.282389486514E+00
  1.297778160352E+00  1.313351498276E+00  1.329111716255E+00  1.345061056850E+00
  1.361201789533E+00  1.377536211007E+00  1.394066645539E+00  1.410795445286E+00
  1.427724990629E+00  1.444857690517E+00  1.462195982803E+00  1.479742334596E+00
  1.497499242612E+00  1.515469233523E+00  1.533654864325E+00  1.552058722697E+00
  1.570683427369E+00  1.589531628498E+00  1.608606008040E+00  1.627909280136E+00
  1.647444191498E+00  1.667213521796E+00  1.687220084058E+00  1.707466725066E+00
  1.727956325767E+00  1.748691801676E+00  1.769676103296E+00  1.790912216536E+00
  1.812403163134E+00  1.834152001092E+00  1.856161825105E+00  1.878435767006E+00
  1.900976996210E+00  1.923788720165E+00  1.946874184807E+00  1.970236675025E+00
  1.993879515125E+00  2.017806069306E+00  2.042019742138E+00  2.066523979044E+00
  2.091322266792E+00  2.116418133994E+00  2.141815151602E+00  2.167516933421E+00
  2.193527136622E+00  2.219849462261E+00  2.246487655808E+00  2.273445507678E+00
  2.300726853770E+00  2.328335576016E+00  2.356275602928E+00  2.384550910163E+00
  2.413165521085E+00  2.442123507338E+00  2.471428989426E+00  2.501086137299E+00
  2.531099170947E+00  2.561472360998E+00  2.592210029330E+00  2.623316549682E+00
  2.654796348278E+00  2.686653904457E+00  2.718893751311E+00  2.751520476327E+00
  2.784538722043E+00  2.817953186707E+00  2.851768624948E+00  2.885989848447E+00
  2.920621726628E+00  2.955669187348E+00  2.991137217596E+00  3.027030864207E+00
  3.063355234578E+00  3.100115497393E+00  3.137316883361E+00  3.174964685962E+00
  3.213064262193E+00  3.251621033339E+00  3.290640485740E+00  3.330128171568E+00
  3.370089709627E+00  3.410530786143E+00  3.451457155576E+00  3.492874641443E+00
  3.534789137141E+00  3.577206606786E+00  3.620133086068E+00  3.663574683101E+00
  3.707537579298E+00  3.752028030249E+00  3.797052366612E+00  3.842616995012E+00
  3.888728398952E+00  3.935393139739E+00  3.982617857416E+00  4.030409271705E+00
  4.078774182966E+00  4.127719473161E+00  4.177252106839E+00  4.227379132121E+00
  4.278107681707E+00  4.329444973887E+00  4.381398313574E+00  4.433975093337E+00
  4.487182794457E+00  4.541028987990E+00  4.595521335846E+00  4.650667591876E+00
  4.706475602979E+00  4.762953310215E+00  4.820108749937E+00  4.877950054936E+00
  4.936485455596E+00  4.995723281063E+00  5.055671960436E+00  5.116340023961E+00
  5.177736104248E+00  5.239868937499E+00  5.302747364749E+00  5.366380333126E+00
  5.430776897124E+00  5.495946219889E+00  5.561897574528E+00  5.628640345422E+00
  5.696184029567E+00  5.764538237922E+00  5.833712696777E+00  5.903717249139E+00
  5.974561856128E+00  6.046256598402E+00  6.118811677583E+00  6.192237417714E+00
  6.266544266726E+00  6.341742797927E+00  6.417843711502E+00  6.494857836040E+00
  6.572796130072E+00  6.651669683633E+00  6.731489719837E+00  6.812267596475E+00
  6.894014807633E+00  6.976742985324E+00  7.060463901148E+00  7.145189467962E+00
  7.230931741577E+00  7.317702922476E+00  7.405515357546E+00  7.494381541837E+00
  7.584314120339E+00  7.675325889783E+00  7.767429800460E+00  7.860638958066E+00
  7.954966625562E+00  8.050426225069E+00  8.147031339770E+00  8.244795715847E+00
  8.343733264437E+00  8.443858063611E+00  8.545184360374E+00  8.647726572698E+00
  8.751499291571E+00  8.856517283070E+00  8.962795490467E+00  9.070349036352E+00
  9.179193224788E+00  9.289343543486E+00  9.400815666008E+00  9.513625454000E+00
  9.627788959448E+00  9.743322426961E+00  9.860242296085E+00  9.978565203638E+00
  1.009830798608E+01  1.021948768191E+01  1.034212153410E+01  1.046622699251E+01
  1.059182171642E+01  1.071892357701E+01  1.084755065994E+01  1.097772126786E+01
  1.110945392307E+01  1.124276737015E+01  1.137768057859E+01  1.151421274553E+01
  1.165238329848E+01  1.179221189806E+01  1.193371844084E+01  1.207692306213E+01
  1.222184613887E+01  1.236850829254E+01  1.251693039205E+01  1.266713355675E+01
  1.281913915944E+01  1.297296882935E+01  1.312864445530E+01  1.328618818877E+01
  1.344562244703E+01  1.360696991639E+01  1.377025355539E+01  1.393549659806E+01
  1.410272255723E+01  1.427195522792E+01  1.444321869065E+01  1.461653731494E+01
  1.479193576272E+01  1.496943899187E+01  1.514907225978E+01  1.533086112689E+01
  1.551483146042E+01  1.570100943794E+01  1.588942155120E+01  1.608009460981E+01
  1.627305574513E+01  1.646833241407E+01  1.666595240304E+01  1.686594383188E+01
  1.706833515786E+01  1.727315517975E+01  1.748043304191E+01  1.769019823841E+01
  1.790248061727E+01  1.811731038468E+01  1.833471810930E+01  1.855473472661E+01
  1.877739154333E+01  1.900272024185E+01  1.923075288475E+01  1.946152191937E+01
  1.969506018240E+01  1.993140090459E+01  2.017057771544E+01  2.041262464803E+01
  2.065757614381E+01  2.090546705753E+01  2.115633266222E+01  2.141020865417E+01
  2.166713115802E+01  2.192713673191E+01  2.219026237270E+01  2.245654552117E+01
  2.272602406742E+01  2.299873635623E+01  2.327472119251E+01  2.355401784682E+01
  2.383666606098E+01  2.412270605371E+01  2.441217852636E+01  2.470512466867E+01
  2.500158616470E+01  2.530160519867E+01  2.560522446106E+01  2.591248715459E+01
  2.622343700044E+01  2.653811824445E+01  2.685657566338E+01  2.717885457134E+01
  2.750500082620E+01  2.783506083611E+01  2.816908156615E+01  2.850711054494E+01
  2.884919587148E+01  2.919538622194E+01  2.954573085660E+01  2.990027962688E+01
  3.025908298240E+01  3.062219197819E+01  3.098965828193E+01  3.136153418131E+01
  3.173787259149E+01  3.211872706259E+01  3.250415178734E+01  3.289420160879E+01
  3.328893202809E+01  3.368839921243E+01  3.409266000298E+01  3.450177192301E+01
  3.491579318609E+01  3.533478270432E+01  3.575880009677E+01  3.618790569794E+01
  3.662216056631E+01  3.706162649311E+01  3.750636601102E+01  3.795644240316E+01
  3.841191971199E+01  3.887286274854E+01  3.933933710152E+01  3.981140914674E+01
  4.028914605650E+01  4.077261580918E+01  4.126188719889E+01  4.175702984527E+01
  4.225811420342E+01  4.276521157386E+01  4.327839411275E+01  4.379773484210E+01
  4.432330766020E+01
</grid-data>
</grid>
<valence-charge total-charge="10" is-unscreening-charge="yes"
 rescaled-to-z-pseudo="no">
<radfunc>
<data npts="457">
  6.231539364737E-02  6.241054671404E-02  6.270434915611E-02  6.319131960866E-02
  6.386970678123E-02  6.476407255920E-02  6.590781675590E-02  6.722285644883E-02
  6.870831035918E-02  7.044972867909E-02  7.242442144424E-02  7.458499686589E-02
  7.721597064939E-02  7.998691396971E-02  8.328611746677E-02  8.661393747971E-02
  9.048679769667E-02  9.419823775291E-02  9.841762660894E-02  1.032192215694E-01
  1.086892431853E-01  1.136134180489E-01  1.190882167752E-01  1.251803926852E-01
  1.319656665883E-01  1.395300524754E-01  1.479713888486E-01  1.549443554956E-01
  1.625256413424E-01  1.707734050392E-01  1.797518948102E-01  1.895321195242E-01
  2.001925908559E-01  2.118201422748E-01  2.245108304826E-01  2.383709245816E-01
  2.535179876293E-01  2.700820542304E-01  2.819823863709E-01  2.946223663502E-01
  3.080514471944E-01  3.223224582757E-01  3.374918124980E-01  3.536197203106E-01
  3.707704095680E-01  3.890123499506E-01  4.084184803216E-01  4.290664369846E-01
  4.510387803441E-01  4.744232169308E-01  4.993128131366E-01  5.258061963003E-01
  5.540077379850E-01  5.840277133834E-01  6.159824297676E-01  6.499943157627E-01
  6.861919619493E-01  7.247101018972E-01  7.656895211792E-01  8.092768802242E-01
  8.556244350298E-01  9.048896377801E-01  9.572345973144E-01  1.012825377189E+00
  1.071831106797E+00  1.134422878701E+00  1.200772403091E+00  1.235409758342E+00
  1.271050388102E+00  1.307715158283E+00  1.345424612879E+00  1.384198894498E+00
  1.424057658715E+00  1.465019981964E+00  1.507104262700E+00  1.550328115547E+00
  1.594708258190E+00  1.640260390746E+00  1.686999067393E+00  1.734937560040E+00
  1.784087713852E+00  1.834459794487E+00  1.886062326909E+00  1.938901925716E+00
  1.992983116963E+00  2.048308151501E+00  2.104876809942E+00  2.162686199430E+00
  2.221730542482E+00  2.282000958239E+00  2.343485236624E+00  2.406167605952E+00
  2.470028494735E+00  2.535044288508E+00  2.601187082688E+00  2.668424432630E+00
  2.736719102225E+00  2.806028812544E+00  2.876305992268E+00  2.947497531809E+00
  3.019544543256E+00  3.092382128477E+00  3.165939157943E+00  3.240138063023E+00
  3.314894644738E+00  3.390117902130E+00  3.465709883609E+00  3.541565564775E+00
  3.617572756397E+00  3.693612046278E+00  3.769556778855E+00  3.845273076376E+00
  3.920619905488E+00  3.995449192965E+00  4.069605994178E+00  4.142928717663E+00
  4.215249408880E+00  4.286394095850E+00  4.356183198926E+00  4.424432006406E+00
  4.490951217084E+00  4.555547550146E+00  4.618024422047E+00  4.678182689200E+00
  4.735821454427E+00  4.790738934221E+00  4.842733382984E+00  4.891604069459E+00
  4.937152299742E+00  4.979182480423E+00  5.017503214679E+00  5.051928423524E+00
  5.082278483927E+00  5.108381375160E+00  5.130073824609E+00  5.147202444267E+00
  5.159624849355E+00  5.167210750921E+00  5.169843014829E+00  5.167418680273E+00
  5.159849931784E+00  5.147065019626E+00  5.129009124353E+00  5.105645162231E+00
  5.076954528905E+00  5.042937779313E+00  5.003615242089E+00  4.959027566663E+00
  4.909236200834E+00  4.854323795719E+00  4.794394533706E+00  4.729574373281E+00
  4.660011202584E+00  4.585874891164E+00  4.507357226976E+00  4.424671723228E+00
  4.338053277611E+00  4.247757664785E+00  4.154060842255E+00  4.057258049971E+00
  3.957662685593E+00  3.855604940424E+00  3.751429064647E+00  3.645485736463E+00
  3.538121785882E+00  3.429677038045E+00  3.320484310610E+00  3.210867112380E+00
  3.101138302817E+00  2.991598699920E+00  2.882535805844E+00  2.774222648498E+00
  2.666916750652E+00  2.560859237415E+00  2.456274091828E+00  2.353367566970E+00
  2.252327761268E+00  2.153324361776E+00  2.056508557953E+00  1.962013126088E+00
  1.869952681880E+00  1.780424096090E+00  1.693507249452E+00  1.609266659469E+00
  1.527753522600E+00  1.449006500324E+00  1.373052143680E+00  1.299905591838E+00
  1.229571227140E+00  1.162043342539E+00  1.097306817258E+00  1.035337796165E+00
  9.761043687191E-01  9.195672436203E-01  8.656804155974E-01  8.143918210517E-01
  7.656439796269E-01  7.193746188343E-01  6.755172797292E-01  6.340019011688E-01
  5.947553810215E-01  5.577021127492E-01  5.227644960812E-01  4.898634207529E-01
  4.589187225177E-01  4.298496108699E-01  4.025750681312E-01  3.770142197494E-01
  3.530866758511E-01  3.307128442562E-01  3.098142153269E-01  2.903136191655E-01
  2.721354558092E-01  2.552058991855E-01  2.394530757009E-01  2.248072184224E-01
  2.112007978956E-01  1.985686307057E-01  1.868479669464E-01  1.759785578024E-01
  1.659027044849E-01  1.565652897821E-01  1.479137934955E-01  1.398982930374E-01
  1.324714504564E-01  1.255884871418E-01  1.192071474357E-01  1.132876523465E-01
  1.077926445269E-01  1.026871256274E-01  9.793838709672E-02  9.351593544078E-02
  8.939141290008E-02  8.553851444501E-02  8.193290192832E-02  7.855211617251E-02
  7.537548770786E-02  7.238404681548E-02  6.956043346890E-02  6.688880770901E-02
  6.435476092972E-02  6.194522849727E-02  5.964840407379E-02  5.745365596688E-02
  5.535144578038E-02  5.333324959896E-02  5.139148189908E-02  4.951942234202E-02
  4.771114557154E-02  4.596145410736E-02  4.426581439868E-02  4.262029607606E-02
  4.102151441811E-02  3.946657602898E-02  3.795302770489E-02  3.647880845202E-02
  3.504220460455E-02  3.364180797912E-02  3.227647699180E-02  3.094530065480E-02
  2.964756536226E-02  2.838272436835E-02  2.715036985583E-02  2.595020748884E-02
  2.478203334065E-02  2.364571308499E-02  2.254116333761E-02  2.146833503444E-02
  2.042719873229E-02  1.941773171843E-02  1.843990681661E-02  1.749368277831E-02
  1.657899615001E-02  1.569575450951E-02  1.484383096670E-02  1.402305982761E-02
  1.323323332293E-02  1.247409930624E-02  1.174535983035E-02  1.104667051380E-02
  1.037764061372E-02  9.737833724360E-03  9.126769026962E-03  8.543923015122E-03
  7.988731631561E-03  7.460592750027E-03  6.958868942787E-03  6.482890477672E-03
  6.031958492615E-03  5.605348299482E-03  5.202312772841E-03  4.822085783075E-03
  4.463885636838E-03  4.126918491462E-03  3.810381713322E-03  3.513467153500E-03
  3.235364317283E-03  2.975263407109E-03  2.732358221491E-03  2.505848895280E-03
  2.294944469245E-03  2.098865279486E-03  1.916845159561E-03  1.748133450396E-03
  1.591996815150E-03  1.447720858075E-03  1.314611548206E-03  1.191996450292E-03
  1.079225766859E-03  9.756731965691E-04  8.807366152130E-04  7.938385866803E-04
  7.144267120989E-04  6.419738260737E-04  5.759780495365E-04  5.159627091782E-04
  4.614761337691E-04  4.120913378889E-04  3.674056036924E-04  3.270399713390E-04
  2.906386486171E-04  2.578683501140E-04  2.284175760146E-04  2.019958402841E-04
  1.783328575867E-04  1.571776978485E-04  1.382979168731E-04  1.214786708894E-04
  1.065218223503E-04  9.324504372167E-05  8.148092540987E-05  7.107609337598E-05
  6.189034139233E-05  5.379578230628E-05  4.667602210230E-05  4.042535999636E-05
  3.494801726217E-05  3.015739698119E-05  2.597537642890E-05  2.233163336340E-05
  1.916300706838E-05  1.641289462375E-05  1.403068253400E-05  1.197121353626E-05
  1.019428813791E-05  8.664200195311E-06  7.349305641256E-06  6.221623296463E-06
  5.256466558655E-06  4.432104649973E-06  3.729452016971E-06  3.131784415593E-06
  2.624480173921E-06  2.194785105889E-06  1.831599547391E-06  1.525285999965E-06
  1.267495894528E-06  1.051014026241E-06  8.696192597366E-07  7.179601596434E-07
  5.914442631314E-07  4.861397772978E-07  3.986885534430E-07  3.262292612648E-07
  2.663297577041E-07  2.169277166321E-07  1.762786559690E-07  1.429105674963E-07
  1.155844209984E-07  9.325987800881E-08  7.506561100000E-08  6.027368109389E-08
  4.827748112008E-08  3.857280102012E-08  3.074161915898E-08  2.443826608650E-08
  1.937764676149E-08  1.532524331670E-08  1.208865324011E-08  9.510447535254E-09
  7.462160174566E-09  5.839244160428E-09  4.556850949610E-09  3.546309071128E-09
  2.752194667247E-09  2.129901600038E-09  1.643631873254E-09  1.264738594893E-09
  9.703637140607E-10  7.423214611298E-10  5.661859462060E-10  4.305478606446E-10
  3.264108014790E-10  2.467025104498E-10  1.858803884893E-10  1.396141037741E-10
  1.045310380786E-10  7.801278452428E-11  5.803298408141E-11  4.302852490104E-11
  3.179757733901E-11  2.341914170325E-11  1.718978293434E-11  1.257404916123E-11
  9.165747371170E-12  6.657803296974E-12  4.818884531932E-12  3.475333221068E-12
  2.497252149472E-12  1.787828030443E-12  1.275168660991E-12  9.060850162879E-13
  6.413724899936E-13  4.522433041365E-13  3.176395114872E-13  2.222170146723E-13
  1.548389120352E-13  1.074539191435E-13  7.426476719041E-14  5.111408648349E-14
  3.503274189195E-14  2.390901367951E-14  1.624729930897E-14  1.099285245327E-14
  7.405028630104E-15  4.966007337264E-15  3.315347879246E-15  2.203274271413E-15
  1.457478020295E-15  9.596336112426E-16  6.288608662358E-16  4.101330504661E-16
  2.661896360447E-16  1.719208236540E-16  1.104870232578E-16  7.065024675201E-17
  4.494791691414E-17  2.844935797169E-17  1.791330004807E-17  1.121997401115E-17
  6.990267290895E-18  4.331652635716E-18  2.669581973411E-18  1.636191933395E-18
  9.972356221899E-19  6.043725368602E-19  3.641879361398E-19  2.181877763190E-19
  1.299538230861E-19  7.694330888493E-20  4.528399913170E-20  2.648983743104E-20
  1.540078327789E-20  0.000000000000E+00  0.000000000000E+00  0.000000000000E+00
  0.000000000000E+00
</data>
</radfunc>
</valence-charge>
<pseudocore-charge matching-radius="0.929278974869"
 number-of-continuous-derivatives="4">
<annotation model-charge-form="Teter function with specified parameters" />
<radfunc>
<data npts="290">
  3.144740575994E+01  3.144582672148E+01  3.144095424551E+01  3.143288851002E+01
  3.142167359084E+01  3.140692576720E+01  3.138812754555E+01  3.136659876202E+01
  3.134238786392E+01  3.131414864943E+01  3.128231113138E+01  3.124769739650E+01
  3.120585282991E+01  3.116213658241E+01  3.111054865078E+01  3.105900915996E+01
  3.099963737560E+01  3.094333683616E+01  3.088001819385E+01  3.080882295706E+01
  3.072879201443E+01  3.065769031256E+01  3.057964714213E+01  3.049400439175E+01
  3.040004566225E+01  3.029699197845E+01  3.018399738006E+01  3.009217862985E+01
  2.999383874565E+01  2.988853776224E+01  2.977580959423E+01  2.965516104839E+01
  2.952607089642E+01  2.938798903047E+01  2.924033572723E+01  2.908250105083E+01
  2.891384442918E+01  2.873369444384E+01  2.860686373713E+01  2.847439779527E+01
  2.833607508079E+01  2.819166824608E+01  2.804094429605E+01  2.788366479553E+01
  2.771958612592E+01  2.754845979620E+01  2.737003281355E+01  2.718404811953E+01
  2.699024509749E+01  2.678836015785E+01  2.657812740779E+01  2.635927941230E+01
  2.613154805384E+01  2.589466549801E+01  2.564836527297E+01  2.539238347028E+01
  2.512646007488E+01  2.485034043226E+01  2.456377686010E+01  2.426653041202E+01
  2.395837280011E+01  2.363908848276E+01  2.330847692328E+01  2.296635502365E+01
  2.261255973682E+01  2.224695085905E+01  2.186941400199E+01  2.167614466523E+01
  2.147986374198E+01  2.128056562492E+01  2.107824694119E+01  2.087290666497E+01
  2.066454623229E+01  2.045316965800E+01  2.023878365468E+01  2.002139775337E+01
  1.980102442596E+01  1.957767920890E+01  1.935138082815E+01  1.912215132501E+01
  1.889001618255E+01  1.865500445240E+01  1.841714888150E+01  1.817648603844E+01
  1.793305643908E+01  1.768690467088E+01  1.743807951568E+01  1.718663407023E+01
  1.693262586413E+01  1.667611697453E+01  1.641717413703E+01  1.615586885214E+01
  1.589227748673E+01  1.562648136963E+01  1.535856688083E+01  1.508862553337E+01
  1.481675404728E+01  1.454305441458E+01  1.426763395464E+01  1.399060535899E+01
  1.371208672455E+01  1.343220157453E+01  1.315107886591E+01  1.286885298259E+01
  1.258566371322E+01  1.230165621266E+01  1.201698094617E+01  1.173179361521E+01
  1.144625506391E+01  1.116053116521E+01  1.087479268579E+01  1.058921512860E+01
  1.030397855242E+01  1.001926736730E+01  9.735270105285E+00  9.452179165498E+00
  9.170190533083E+00  8.889503471322E+00  8.610320186490E+00  8.332845465077E+00
  8.057286283137E+00  7.783851387671E+00  7.512750850094E+00  7.244195592022E+00
  6.978396883771E+00  6.715565816196E+00  6.455912746663E+00  6.199646720222E+00
  5.946974867240E+00  5.698101779047E+00  5.453228863373E+00  5.212553681670E+00
  4.976269270635E+00  4.744563450619E+00  4.517618123813E+00  4.295608565477E+00
  4.078702711716E+00  3.867060447635E+00  3.660832899977E+00  3.460161738623E+00
  3.265178491600E+00  3.076003878480E+00  2.892747167275E+00  2.715505560120E+00
  2.544363613195E+00  2.379392696451E+00  2.220650498782E+00  2.068180584303E+00
  1.922012005370E+00  1.782158977862E+00  1.648620624133E+00  1.521380788746E+00
  1.400407931862E+00  1.285655104733E+00  1.177060011300E+00  1.074545159341E+00
  9.780181040077E-01  8.873717858402E-01  8.024849645791E-01  7.232227492141E-01
  6.494372237579E-01  5.809681672205E-01  5.176438651907E-01  4.592820093097E-01
  4.056906797693E-01  3.566694047952E-01  3.120102898990E-01  2.714992085249E-01
  2.349170445905E-01  2.020409763595E-01  1.726457900984E-01  1.465052110882E-01
  1.233932388186E-01  1.030854725899E-01  8.536041333533E-02  7.000072725263E-02
  5.679445683926E-02  4.553616515842E-02  3.602799965396E-02  2.808066257867E-02
  2.151427611241E-02  1.615913152058E-02  1.185631323224E-02  8.458190484843E-03
  5.828771167853E-03  3.843914669275E-03  2.391402851561E-03  1.370870710298E-03
  6.936007506333E-04  2.821875949833E-04  7.008174987034E-05  1.023745201551E-06
  2.838194998102E-05  1.144091992656E-04  2.294348760402E-04  3.510102220325E-04
  4.630253547532E-04  5.548167062173E-04  6.202833467684E-04  6.570299051044E-04
  6.655525496783E-04  6.484827817563E-04  6.099016496977E-04  5.547344889055E-04
  4.882335009840E-04  4.155525027222E-04  3.414151066031E-04  2.698745540128E-04
  2.041605282927E-04  1.466056437326E-04  9.864204772972E-05  6.085678251974E-05
  3.309330709541E-05  1.458593192514E-05  4.113893254632E-06  1.623830999505E-07
  1.079015824406E-06  5.215880634659E-06  1.104940021908E-05  1.727256326191E-05
  2.285657909059E-05  2.708146340774E-05  2.953735267049E-05  3.010032002771E-05
  2.888800807786E-05  2.620141422503E-05  2.245961276533E-05  1.813406723543E-05
  1.368851544630E-05  9.529279657147E-06  5.969384433343E-06  3.208201444438E-06
  1.326645315546E-06  2.963793471890E-07  2.008097586432E-10  2.598788487198E-07
  8.672876578269E-07  1.614736615641E-06  2.320916824395E-06  2.849778252488E-06
  3.120799729766E-06  3.110363948127E-06  2.845140596714E-06  2.389362929264E-06
  1.828537036435E-06  1.252376213779E-06  7.395894740641E-07  3.466174940136E-07
  1.015987295332E-07  3.899923097424E-09  0.000000000000E+00  0.000000000000E+00
  0.000000000000E+00  0.000000000000E+00  0.000000000000E+00  0.000000000000E+00
  0.000000000000E+00  0.000000000000E+00  0.000000000000E+00  0.000000000000E+00
  0.000000000000E+00  0.000000000000E+00  0.000000000000E+00  0.000000000000E+00
  0.000000000000E+00  0.000000000000E+00  0.000000000000E+00  0.000000000000E+00
  0.000000000000E+00  0.000000000000E+00  0.000000000000E+00  0.000000000000E+00
  0.000000000000E+00  0.000000000000E+00  0.000000000000E+00  0.000000000000E+00
  0.000000000000E+00  0.000000000000E+00  0.000000000000E+00  0.000000000000E+00
  0.000000000000E+00  0.000000000000E+00  0.000000000000E+00  0.000000000000E+00
  0.000000000000E+00  0.000000000000E+00  0.000000000000E+00  0.000000000000E+00
  0.000000000000E+00  0.000000000000E+00
</data>
</radfunc>
</pseudocore-charge>
<semilocal-potentials set="scalar_relativistic">
<slps n="4" l="s" rc="1.66721352180" eref="-1.50373301477">
<radfunc>
<data npts="290">
  3.391865489080E+01  3.390127431885E+01  3.384771700473E+01  3.375930622601E+01
  3.363688391315E+01  3.347678853906E+01  3.327417936590E+01  3.304412024283E+01
  3.278789128558E+01  3.249231058125E+01  3.216322856080E+01  3.181035803163E+01
  3.139044683388E+01  3.095936555653E+01  3.046039234632E+01  2.997209891863E+01
  2.942184752087E+01  2.891177750604E+01  2.835128396347E+01  2.773710340750E+01
  2.706615385224E+01  2.648662883063E+01  2.586772246451E+01  2.520838974855E+01
  2.450783654161E+01  2.376556476334E+01  2.298141739769E+01  2.236594715071E+01
  2.172729176817E+01  2.106584461189E+01  2.038214875485E+01  1.967690254780E+01
  1.895096340155E+01  1.820534954507E+01  1.744123955259E+01  1.665996947622E+01
  1.586302747550E+01  1.505204589892E+01  1.450445876560E+01  1.395196799521E+01
  1.339514929872E+01  1.283459823503E+01  1.227092791695E+01  1.170476657123E+01
  1.113675497461E+01  1.056754379040E+01  9.997790831719E+00  9.428158278777E+00
  8.859309878538E+00  8.291908155576E+00  7.726611662813E+00  7.164072300326E+00
  6.604932729442E+00  6.049823907858E+00  5.499362769693E+00  4.954150072136E+00
  4.414768427795E+00  3.881780539051E+00  3.355727647629E+00  2.837128209460E+00
  2.326476801596E+00  1.824243264614E+00  1.330872080682E+00  8.467819842074E-01
  3.723657989121E-01 -9.200950777415E-02 -5.460025648627E-01 -7.690059630878E-01
 -9.892971468855E-01 -1.206840414415E+00 -1.421601548600E+00 -1.633547789388E+00
 -1.842647804066E+00 -2.048871655807E+00 -2.252190770626E+00 -2.452577902934E+00
 -2.650007099873E+00 -2.844453664632E+00 -3.035894118931E+00 -3.224306164879E+00
 -3.409668646391E+00 -3.591961510382E+00 -3.771165767924E+00 -3.947263455571E+00
 -4.120237597051E+00 -4.290072165527E+00 -4.456752046605E+00 -4.620263002309E+00
 -4.780591636181E+00 -4.937725359707E+00 -5.091652360234E+00 -5.242361570558E+00
 -5.389842640324E+00 -5.534085909405E+00 -5.675082383387E+00 -5.812823711283E+00
 -5.947302165589E+00 -6.078510624775E+00 -6.206442558268E+00 -6.331092014006E+00
 -6.452453608552E+00 -6.570522519813E+00 -6.685294482291E+00 -6.796765784849E+00
 -6.904933270870E+00 -7.009794340696E+00 -7.111346956172E+00 -7.209589647095E+00
 -7.304521519301E+00 -7.396142264113E+00 -7.484452168776E+00 -7.569452127511E+00
 -7.651143652721E+00 -7.729528885863E+00 -7.804610607439E+00 -7.876392245496E+00
 -7.944877882017E+00 -8.010072256485E+00 -8.071980765917E+00 -8.130609460603E+00
 -8.185965034758E+00 -8.238054811299E+00 -8.286886719946E+00 -8.332469267849E+00
 -8.374811501993E+00 -8.413922962670E+00 -8.449813627370E+00 -8.482493844566E+00
 -8.511974256972E+00 -8.538265714035E+00 -8.561379173596E+00 -8.581325592926E+00
 -8.598115809601E+00 -8.611760413028E+00 -8.622269607807E+00 -8.629653070578E+00
 -8.633919802477E+00 -8.635077979906E+00 -8.633134806940E+00 -8.628096373396E+00
 -8.619967523321E+00 -8.608751739517E+00 -8.594451050550E+00 -8.577065967651E+00
 -8.556595459887E+00 -8.533036976964E+00 -8.506386530047E+00 -8.476638841994E+00
 -8.443787579331E+00 -8.407825679192E+00 -8.368745785207E+00 -8.326540806861E+00
 -8.281204617208E+00 -8.232732903774E+00 -8.181124187074E+00 -8.126381020194E+00