<?xml version="1.0" encoding="UTF-8" ?>
<psml version="1.1" energy_unit="hartree" length_unit="bohr"
 uuid="906e00c0-23d3-11e8-6147-9ce87f4ffb6f"
 xmlns="http://esl.cecam.org/PSML/ns/1.1">
<provenance creator="ONCVPSP-3.3.0+psml-3.3.0-73 (scalar-relativistic)"
 date="2018-03-09">
<annotation action="semilocal-pseudopotential-generation"
 action-cont="projectors-generation" />
<input-file name="oncvpsp-input">
<![CDATA[# atsym z nc nv iexc psfile
Ta 73 10 4 -001012 upf
# n l f
1 0 2.0
2 0 2.0
2 1 6.0
3 0 2.0
3 1 6.0
3 2 10.0
4 0 2.0
4 1 6.0
4 2 10.0
4 3 14.0
5 0 2.0
5 1 6.0
5 2 3.0
6 0 2.0
# lmax
3
# l rc ep ncon nbas qcut
0 1.7 0.0 4 8 7.0
1 1.7 0.0 4 8 7.4
2 1.7 0.0 4 9 6.6
3 2.25 0.5 4 8 6.8
# lloc lpopt rc5 dvloc0
4 5 1.6 0.0
# l nproj debl
0 2 2.0
1 2 1.5
2 2 1.8
3 2 2.5
# icmod fcfact rcfact
3 5.0 1.36
# epsh1 epsh2 depsh
-12.0 12.0 0.02
# rlmax drl
6.0 0.01
 0
]]>
</input-file>
</provenance>
<pseudo-atom-spec atomic-label="Ta" atomic-number="73" z-pseudo="13"
 flavor="Hamann&apos;s oncvpsp" relativity="scalar" spin-dft="no"
 core-corrections="yes">
<annotation pseudo-energy="-58.8759100281" />
<exchange-correlation>
<annotation oncvpsp-xc-code="-1012" oncvpsp-xc-type="libxc-interface" />
<libxc-info number-of-functionals="2">
<functional name="Slater exchange (LDA)" type="exchange" id="1" />
<functional name="Perdew &amp; Wang (LDA)" type="correlation" id="12" />
</libxc-info>
</exchange-correlation>
<valence-configuration total-valence-charge="13">
<shell n="5" l="s" occupation="2" />
<shell n="5" l="p" occupation="6" />
<shell n="5" l="d" occupation="3" />
<shell n="6" l="s" occupation="2" />
</valence-configuration>
</pseudo-atom-spec>
<grid npts="458">
<annotation type="sampled from oncvpsp log grid"
 recipe="r(i:1..N) = r1*exp(a*(i-1)) + r=0; resampled"
 recipe-cont="r1: scale; a: step" scale="0.684931506849E-05"
 step="0.119285708653E-01" delta="0.500000000000E-02" rmax="44.4652856571" />
<grid-data>
  0.000000000000E+00  5.017305651402E-03  1.002167429467E-02  1.503410950261E-02
  2.025771802601E-02  2.541091241664E-02  3.075448503181E-02  3.591328416708E-02
  4.094876041219E-02  4.613663167149E-02  5.136537901594E-02  5.650860641260E-02
  6.216682636963E-02  6.758063756162E-02  7.259477435141E-02  7.798093438119E-02
  8.376671986784E-02  8.891480333121E-02  9.437927453650E-02  1.001795778466E-01
  1.063363526242E-01  1.115331093606E-01  1.169838364460E-01  1.227009456482E-01
  1.286974553096E-01  1.349870199913E-01  1.415839615656E-01  1.467423931104E-01
  1.520887655471E-01  1.576299262629E-01  1.633729721210E-01  1.693252585498E-01
  1.754944089633E-01  1.818883245250E-01  1.885151942671E-01  1.953835055789E-01
  2.025020550769E-01  2.098799598710E-01  2.149473016221E-01  2.201369892725E-01
  2.254519767415E-01  2.308952892679E-01  2.364700251320E-01  2.421793574188E-01
  2.480265358243E-01  2.540148885053E-01  2.601478239733E-01  2.664288330354E-01
  2.728614907802E-01  2.794494586136E-01  2.861964863423E-01  2.931064143086E-01
  3.001831755756E-01  3.074307981667E-01  3.148534073577E-01  3.224552280249E-01
  3.302405870504E-01  3.382139157841E-01  3.463797525668E-01  3.547427453128E-01
  3.633076541556E-01  3.720793541575E-01  3.810628380843E-01  3.902632192470E-01
  3.996857344125E-01  4.093357467842E-01  4.192187490545E-01  4.242493740432E-01
  4.293403665317E-01  4.344924509301E-01  4.397063603412E-01  4.449828366653E-01
  4.503226307053E-01  4.557265022738E-01  4.611952203011E-01  4.667295629447E-01
  4.723303177000E-01  4.779982815124E-01  4.837342608906E-01  4.895390720212E-01
  4.954135408855E-01  5.013585033761E-01  5.073748054166E-01  5.134633030816E-01
  5.196248627186E-01  5.258603610712E-01  5.321706854041E-01  5.385567336290E-01
  5.450194144325E-01  5.515596474057E-01  5.581783631746E-01  5.648765035327E-01
  5.716550215750E-01  5.785148818339E-01  5.854570604160E-01  5.924825451409E-01
  5.995923356826E-01  6.067874437108E-01  6.140688930354E-01  6.214377197518E-01
  6.288949723888E-01  6.364417120575E-01  6.440790126022E-01  6.518079607534E-01
  6.596296562824E-01  6.675452121578E-01  6.755557547037E-01  6.836624237601E-01
  6.918663728453E-01  7.001687693194E-01  7.085707945512E-01  7.170736440859E-01
  7.256785278149E-01  7.343866701487E-01  7.431993101905E-01  7.521177019127E-01
  7.611431143357E-01  7.702768317077E-01  7.795201536882E-01  7.888743955325E-01
  7.983408882789E-01  8.079209789382E-01  8.176160306855E-01  8.274274230537E-01
  8.373565521303E-01  8.474048307559E-01  8.575736887250E-01  8.678645729897E-01
  8.782789478655E-01  8.888182952399E-01  8.994841147828E-01  9.102779241602E-01
  9.212012592501E-01  9.322556743611E-01  9.434427424535E-01  9.547640553629E-01
  9.662212240273E-01  9.778158787156E-01  9.895496692602E-01  1.001424265291E+00
  1.013441356475E+00  1.025602652752E+00  1.037909884586E+00  1.050364803201E+00
  1.062969180839E+00  1.075724811009E+00  1.088633508741E+00  1.101697110846E+00
  1.114917476176E+00  1.128296485890E+00  1.141836043721E+00  1.155538076246E+00
  1.169404533161E+00  1.183437387559E+00  1.197638636209E+00  1.212010299844E+00
  1.226554423442E+00  1.241273076523E+00  1.256168353441E+00  1.271242373683E+00
  1.286497282167E+00  1.301935249553E+00  1.317558472548E+00  1.333369174218E+00
  1.349369604309E+00  1.365562039560E+00  1.381948784035E+00  1.398532169444E+00
  1.415314555477E+00  1.432298330143E+00  1.449485910104E+00  1.466879741026E+00
  1.484482297918E+00  1.502296085493E+00  1.520323638519E+00  1.538567522181E+00
  1.557030332447E+00  1.575714696437E+00  1.594623272794E+00  1.613758752067E+00
  1.633123857092E+00  1.652721343377E+00  1.672553999498E+00  1.692624647492E+00
  1.712936143262E+00  1.733491376981E+00  1.754293273505E+00  1.775344792787E+00
  1.796648930300E+00  1.818208717464E+00  1.840027222073E+00  1.862107548738E+00
  1.884452839323E+00  1.907066273395E+00  1.929951068676E+00  1.953110481500E+00
  1.976547807278E+00  2.000266380965E+00  2.024269577537E+00  2.048560812467E+00
  2.073143542217E+00  2.098021264723E+00  2.123197519900E+00  2.148675890139E+00
  2.174460000820E+00  2.200553520830E+00  2.226960163080E+00  2.253683685037E+00
  2.280727889258E+00  2.308096623929E+00  2.335793783416E+00  2.363823308817E+00
  2.392189188523E+00  2.420895458785E+00  2.449946204290E+00  2.479345558742E+00
  2.509097705447E+00  2.539206877912E+00  2.569677360447E+00  2.600513488772E+00
  2.631719650638E+00  2.663300286445E+00  2.695259889883E+00  2.727603008561E+00
  2.760334244664E+00  2.793458255600E+00  2.826979754667E+00  2.860903511723E+00
  2.895234353864E+00  2.929977166110E+00  2.965136892104E+00  3.000718534809E+00
  3.036727157226E+00  3.073167883113E+00  3.110045897711E+00  3.147366448483E+00
  3.185134845865E+00  3.223356464015E+00  3.262036741583E+00  3.301181182482E+00
  3.340795356672E+00  3.380884900952E+00  3.421455519764E+00  3.462512986001E+00
  3.504063141833E+00  3.546111899535E+00  3.588665242329E+00  3.631729225237E+00
  3.675309975940E+00  3.719413695651E+00  3.764046659999E+00  3.809215219919E+00
  3.854925802558E+00  3.901184912189E+00  3.947999131135E+00  3.995375120709E+00
  4.043319622157E+00  4.091839457623E+00  4.140941531115E+00  4.190632829488E+00
  4.240920423442E+00  4.291811468523E+00  4.343313206145E+00  4.395432964619E+00
  4.448178160195E+00  4.501556298117E+00  4.555574973694E+00  4.610241873379E+00
  4.665564775859E+00  4.721551553170E+00  4.778210171808E+00  4.835548693869E+00
  4.893575278196E+00  4.952298181534E+00  5.011725759713E+00  5.071866468829E+00
  5.132728866455E+00  5.194321612852E+00  5.256653472207E+00  5.319733313873E+00
  5.383570113640E+00  5.448172955003E+00  5.513551030463E+00  5.579713642829E+00
  5.646670206543E+00  5.714430249021E+00  5.783003412010E+00  5.852399452954E+00
  5.922628246389E+00  5.993699785346E+00  6.065624182770E+00  6.138411672963E+00
  6.212072613039E+00  6.286617484395E+00  6.362056894208E+00  6.438401576939E+00
  6.515662395862E+00  6.593850344612E+00  6.672976548748E+00  6.753052267332E+00
  6.834088894540E+00  6.916097961275E+00  6.999091136810E+00  7.083080230452E+00
  7.168077193217E+00  7.254094119536E+00  7.341143248970E+00  7.429236967958E+00
  7.518387811574E+00  7.608608465312E+00  7.699911766896E+00  7.792310708099E+00
  7.885818436596E+00  7.980448257835E+00  8.076213636929E+00  8.173128200572E+00
  8.271205738979E+00  8.370460207847E+00  8.470905730341E+00  8.572556599105E+00
  8.675427278295E+00  8.779532405634E+00  8.884886794502E+00  8.991505436036E+00
  9.099403501268E+00  9.208596343283E+00  9.319099499403E+00  9.430928693396E+00
  9.544099837716E+00  9.658629035769E+00  9.774532584198E+00  9.891826975209E+00
  1.001052889891E+01  1.013065524570E+01  1.025222310865E+01  1.037524978595E+01
  1.049975278338E+01  1.062574981678E+01  1.075325881458E+01  1.088229792036E+01
  1.101288549540E+01  1.114504012135E+01  1.127878060280E+01  1.141412597004E+01
  1.155109548168E+01  1.168970862746E+01  1.182998513099E+01  1.197194495256E+01
  1.211560829199E+01  1.226099559149E+01  1.240812753859E+01  1.255702506906E+01
  1.270770936988E+01  1.286020188232E+01  1.301452430491E+01  1.317069859657E+01
  1.332874697973E+01  1.348869194348E+01  1.365055624681E+01  1.381436292177E+01
  1.398013527683E+01  1.414789690015E+01  1.431767166295E+01  1.448948372291E+01
  1.466335752758E+01  1.483931781791E+01  1.501738963173E+01  1.519759830731E+01
  1.537996948700E+01  1.556452912084E+01  1.575130347029E+01  1.594031911194E+01
  1.613160294128E+01  1.632518217657E+01  1.652108436269E+01  1.671933737505E+01
  1.691996942355E+01  1.712300905663E+01  1.732848516531E+01  1.753642698729E+01
  1.774686411114E+01  1.795982648047E+01  1.817534439824E+01  1.839344853102E+01
  1.861416991339E+01  1.883753995235E+01  1.906359043178E+01  1.929235351696E+01
  1.952386175916E+01  1.975814810027E+01  1.999524587748E+01  2.023518882801E+01
  2.047801109394E+01  2.072374722707E+01  2.097243219379E+01  2.122410138012E+01
  2.147879059668E+01  2.173653608384E+01  2.199737451685E+01  2.226134301105E+01
  2.252847912718E+01  2.279882087671E+01  2.307240672723E+01  2.334927560796E+01
  2.362946691525E+01  2.391302051823E+01  2.419997676445E+01  2.449037648563E+01
  2.478426100345E+01  2.508167213550E+01  2.538265220112E+01  2.568724402754E+01
  2.599549095587E+01  2.630743684734E+01  2.662312608950E+01  2.694260360258E+01
  2.726591484581E+01  2.759310582396E+01  2.792422309385E+01  2.825931377097E+01
  2.859842553622E+01  2.894160664266E+01  2.928890592237E+01  2.964037279344E+01
  2.999605726696E+01  3.035600995416E+01  3.072028207361E+01  3.108892545850E+01
  3.146199256400E+01  3.183953647477E+01  3.222161091246E+01  3.260827024341E+01
  3.299956948633E+01  3.339556432017E+01  3.379631109201E+01  3.420186682512E+01
  3.461228922702E+01  3.502763669774E+01  3.544796833812E+01  3.587334395817E+01
  3.630382408567E+01  3.673946997470E+01  3.718034361440E+01  3.762650773777E+01
  3.807802583062E+01  3.853496214059E+01  3.899738168628E+01  3.946535026651E+01
  3.993893446971E+01  4.041820168335E+01  4.090322010355E+01  4.139405874479E+01
  4.189078744973E+01  4.239347689912E+01  4.290219862191E+01  4.341702500538E+01
  4.393802930544E+01  4.446528565711E+01
</grid-data>
</grid>
<valence-charge total-charge="13" is-unscreening-charge="yes"
 rescaled-to-z-pseudo="no">
<radfunc>
<data npts="458">
  1.991853105689E+00  1.992448437229E+00  1.994228170930E+00  1.997197694834E+00
  2.001555689105E+00  2.007117509230E+00  2.014207903544E+00  2.022329671205E+00
  2.031465111862E+00  2.042123000301E+00  2.054142093670E+00  2.067213018785E+00
  2.083019684887E+00  2.099539431153E+00  2.116053747114E+00  2.135090138627E+00
  2.157030231166E+00  2.177845975658E+00  2.201268697352E+00  2.227620395009E+00
  2.257261569019E+00  2.283612354941E+00  2.312553609580E+00  2.344334353959E+00
  2.379226280970E+00  2.417525523435E+00  2.459554485554E+00  2.493733602103E+00
  2.530366143950E+00  2.569620950117E+00  2.611677244185E+00  2.656725050506E+00
  2.704965581649E+00  2.756611584787E+00  2.811887632079E+00  2.871030337012E+00
  2.934288475004E+00  3.001922982291E+00  3.049578271664E+00  3.099383454268E+00
  3.151424541361E+00  3.205789689927E+00  3.262569083300E+00  3.321854781669E+00
  3.383740538469E+00  3.448321578251E+00  3.515694331135E+00  3.585956118509E+00
  3.659204784046E+00  3.735538263620E+00  3.815054087073E+00  3.897848804181E+00
  3.984017326570E+00  4.073652176640E+00  4.166842633963E+00  4.263673768978E+00
  4.364225353203E+00  4.468570634672E+00  4.576774966844E+00  4.688894278887E+00
  4.804973375093E+00  4.925044051212E+00  5.049123015786E+00  5.177209605250E+00
  5.309283282614E+00  5.445300911126E+00  5.585193796540E+00  5.656564224401E+00
  5.728864494514E+00  5.802077371851E+00  5.876183383492E+00  5.951160699115E+00
  6.026985008190E+00  6.103629394009E+00  6.181064204769E+00  6.259256921911E+00
  6.338172025998E+00  6.417770860436E+00  6.498011493395E+00  6.578848578335E+00
  6.660233213606E+00  6.742112801633E+00  6.824430908262E+00  6.907127122927E+00
  6.990136920332E+00  7.073391524444E+00  7.156817775657E+00  7.240338002060E+00
  7.323869895836E+00  7.407326395889E+00  7.490615577895E+00  7.573640553063E+00
  7.656299376954E+00  7.738484969845E+00  7.820085050153E+00  7.900982082593E+00
  7.981053242755E+00  8.060170399932E+00  8.138200120071E+00  8.215003690799E+00
  8.290437170549E+00  8.364351463855E+00  8.436592424931E+00  8.507000991677E+00
  8.575413352276E+00  8.641661146531E+00  8.705571704073E+00  8.766968321522E+00
  8.825670580615E+00  8.881494709197E+00  8.934253986869E+00  8.983759196889E+00
  9.029819125756E+00  9.072241111628E+00  9.110831642492E+00  9.145397004646E+00
  9.175743981709E+00  9.201680603960E+00  9.223016947350E+00  9.239565981044E+00
  9.251144461786E+00  9.257573872812E+00  9.258681404405E+00  9.254300972508E+00
  9.244274271134E+00  9.228451853580E+00  9.206694236705E+00  9.178873021787E+00
  9.144872024708E+00  9.104588407485E+00  9.057933802406E+00  9.004835419395E+00
  8.945237126510E+00  8.879100492982E+00  8.806405783634E+00  8.727152893164E+00
  8.641362208461E+00  8.549075386981E+00  8.450356039167E+00  8.345290303083E+00
  8.233987299706E+00  8.116579457835E+00  7.993222698269E+00  7.864096467763E+00
  7.729403614368E+00  7.589370096992E+00  7.444244523493E+00  7.294297513185E+00
  7.139820881424E+00  6.981126645786E+00  6.818545855355E+00  6.652427246627E+00
  6.483135731651E+00  6.311050726026E+00  6.136564326407E+00  5.960079349076E+00
  5.782007242902E+00  5.602765891691E+00  5.422777322315E+00  5.242465336312E+00
  5.062253083624E+00  4.882560597991E+00  4.703802314089E+00  4.526384586919E+00
  4.350703234165E+00  4.177141122353E+00  4.006065817601E+00  3.837827321698E+00
  3.672755914105E+00  3.511160120356E+00  3.353324827239E+00  3.199509564993E+00
  3.049946976648E+00  2.904841494475E+00  2.764368243167E+00  2.628672188928E+00
  2.497867552795E+00  2.372037505353E+00  2.251234158231E+00  2.135478865454E+00
  2.024762844657E+00  1.919048124511E+00  1.818268820608E+00  1.722332736953E+00
  1.631123283830E+00  1.544502662410E+00  1.462319075951E+00  1.384416032448E+00
  1.310633648947E+00  1.240809703282E+00  1.174780702232E+00  1.112382826998E+00
  1.053452800306E+00  9.978286726560E-01  9.453505296409E-01  8.958611226987E-01
  8.492064259546E-01  8.052361221242E-01  7.638040207038E-01  7.247684118797E-01
  6.879923597516E-01  6.533439385824E-01  6.206964158631E-01  5.899283860202E-01
  5.609238585993E-01  5.335723047285E-01  5.077686656137E-01  4.834133267333E-01
  4.604120613019E-01  4.386759464458E-01  4.181212554007E-01  3.986693288871E-01
  3.802464286584E-01  3.627835760487E-01  3.462163781691E-01  3.304848442236E-01
  3.155331942400E-01  3.013096622995E-01  2.877662962504E-01  2.748587556034E-01
  2.625461092230E-01  2.507906342278E-01  2.395576173570E-01  2.288151599113E-01
  2.185339872297E-01  2.086872635262E-01  1.992504127845E-01  1.902009462862E-01
  1.815182972382E-01  1.731836628607E-01  1.651798542051E-01  1.574911538803E-01
  1.501031817939E-01  1.430027689393E-01  1.361778391980E-01  1.296172990739E-01
  1.233109352220E-01  1.172493195961E-01  1.114237220021E-01  1.058260298113E-01
  1.004486745646E-01  9.528456517809E-02  9.032702744183E-02  8.556974949529E-02
  8.100673295148E-02  7.663224933926E-02  7.244080153040E-02  6.842708981946E-02
  6.458598232764E-02  6.091248940758E-02  5.740174173318E-02  5.404897176757E-02
  5.084949831247E-02  4.779871385351E-02  4.489207442845E-02  4.212509175770E-02
  3.949332739033E-02  3.699238863224E-02  3.461792603752E-02  3.236563225504E-02
  3.023124204372E-02  2.821053327392E-02  2.629932875289E-02  2.449349872289E-02
  2.278896389355E-02  2.118169888275E-02  1.966773595206E-02  1.824316893405E-02
  1.690415725997E-02  1.564693000639E-02  1.446778988914E-02  1.336311714229E-02
  1.232937322826E-02  1.136310433352E-02  1.046094461156E-02  9.619619141882E-03
  8.835946580355E-03  8.106841481836E-03  7.429316281722E-03  6.800482927793E-03
  6.217554158265E-03  5.677844425985E-03  5.178770472272E-03  4.717851557118E-03
  4.292709355280E-03  3.901067530215E-03  3.540750999938E-03  3.209684910647E-03
  2.905893335436E-03  2.627497716616E-03  2.372715071066E-03  2.139855978727E-03
  1.927322374784E-03  1.733605166316E-03  1.557281694208E-03  1.397013061009E-03
  1.251541345059E-03  1.119686720791E-03  1.000344504514E-03  8.924821442605E-04
  7.951361715085E-04  7.074091316650E-04  6.284665092513E-04  5.575336627925E-04
  4.938927828575E-04  4.368798871356E-04  3.858818624181E-04  3.403335651593E-04
  2.997149901734E-04  2.635485151920E-04  2.313962285182E-04  2.028573459400E-04
  1.775657219634E-04  1.551874594339E-04  1.354186206709E-04  1.179830423461E-04
  1.026302555024E-04  8.913351133155E-05  7.728791261304E-05  6.690865006187E-05
  5.782934224374E-05  4.990047718734E-05  4.298795335866E-05  3.697171725799E-05
  3.174449455549E-05  2.721061139294E-05  2.328490224608E-05  1.989170055936E-05
  1.696390823081E-05  1.444213993489E-05  1.227393822242E-05  1.041305532529E-05
  8.818797615097E-06  7.455428717033E-06  6.291627357456E-06  5.299996124176E-06
  4.456617437455E-06  3.740653164801E-06  3.133984460330E-06  2.620888566940E-06
  2.187749484216E-06  1.822799574342E-06  1.515889350194E-06  1.258282862222E-06
  1.042476272013E-06  8.620373689979E-07  7.114639513946E-07  5.860591520433E-07
  4.818219434371E-07  3.953512032560E-07  3.237618615586E-07  2.646117830911E-07
  2.158381626827E-07  1.757023283106E-07  1.427419551001E-07  1.157297943732E-07
  9.363811501828E-08  7.560814014899E-08  6.092384053250E-08  4.898951790058E-08
  3.931067637416E-08  3.147773918996E-08  2.515222110843E-08  2.005501469180E-08
  1.595649146183E-08  1.266815716471E-08  1.003563436195E-08  7.932775695838E-09
  6.256737794764E-09  4.923869218910E-09  3.866286412853E-09  3.029029621065E-09
  2.367706407132E-09  1.846544049225E-09  1.436783893985E-09  1.115360949964E-09
  8.638207819022E-10  6.674333025052E-10  5.144695051746E-10  3.956126797636E-10
  3.034803287846E-10  2.322369647415E-10  1.772813185689E-10  1.349943110303E-10
  1.025365092026E-10  7.768577508796E-11  5.870747058259E-11  4.425096242562E-11
  3.326731546010E-11  2.494400963348E-11  1.865329740434E-11  1.391146071664E-11
  1.034675350661E-11  7.674246356884E-12  5.676140901740E-12  4.186406794384E-12
  3.078825104509E-12  2.257708641981E-12  1.650719990031E-12  1.203328691434E-12
  8.745456124715E-13  6.336495841030E-13  4.576827414993E-13  3.295396235147E-13
  2.365135614303E-13  1.691941846416E-13  1.206339269461E-13  8.571895628607E-14
  5.606503054606E-15  3.736062134182E-15  2.478246314317E-15  1.636286494645E-15
  1.075312206895E-15  7.033082611311E-16  4.577918276237E-16  2.965353587777E-16
  1.911374222509E-16  1.225886036142E-16  7.822825465725E-17  4.966610155967E-17
  3.136987533662E-17  1.971037470427E-17  1.231910302173E-17  7.658396271894E-18
  4.735253247074E-18  2.911836365559E-18  1.780657970929E-18  1.082816589825E-18
  6.547279137716E-19  3.936123672273E-19  2.352602404943E-19  1.397880024269E-19
  8.256616121755E-20  4.847457605656E-20  2.828617355339E-20  1.640403861866E-20
  9.453911265246E-21  5.414068992493E-21  3.080736460180E-21  1.741688092568E-21
  9.782220679344E-22  5.457849098408E-22  3.024739122683E-22  1.664951415395E-22
  9.101792252648E-23  4.941149556262E-23  2.663595870918E-23  1.425643430916E-23
  7.575616514261E-24  3.996245826974E-24  0.000000000000E+00  0.000000000000E+00
  0.000000000000E+00  0.000000000000E+00  0.000000000000E+00  0.000000000000E+00
  0.000000000000E+00  0.000000000000E+00
</data>
</radfunc>
</valence-charge>
<pseudocore-charge matching-radius="0.989549669260"
 number-of-continuous-derivatives="4">
<annotation model-charge-form="Teter function with specified parameters" />
<radfunc>
<data npts="291">
  4.265266625892E+01  4.265079324957E+01  4.264519398649E+01  4.263585179607E+01
  4.262214213330E+01  4.260464658200E+01  4.258234458705E+01  4.255680115693E+01
  4.252807299565E+01  4.249456162119E+01  4.245677589394E+01  4.241569014121E+01
  4.236601440632E+01  4.231410834542E+01  4.226223008825E+01  4.220244206072E+01
  4.213355140209E+01  4.206820770725E+01  4.199469919431E+01  4.191202185740E+01
  4.181905258937E+01  4.173642830898E+01  4.164570742670E+01  4.154611595205E+01
  4.143680998262E+01  4.131687025512E+01  4.118529646281E+01  4.107833066459E+01
  4.096371834098E+01  4.084093593448E+01  4.070942758488E+01  4.056860369363E+01
  4.041783951902E+01  4.025647382293E+01  4.008380759404E+01  3.989910287657E+01
  3.970158173866E+01  3.949042542002E+01  3.934165636117E+01  3.918618056852E+01
  3.902372457126E+01  3.885400664692E+01  3.867673688211E+01  3.849161727555E+01
  3.829834188852E+01  3.809659704812E+01  3.788606160915E+01  3.766640728076E+01
  3.743729902478E+01  3.719839553256E+01  3.694934978821E+01  3.668980972602E+01
  3.641941899069E+01  3.613781780921E+01  3.584464398374E+01  3.553953401512E+01
  3.522212436709E+01  3.489205288145E+01  3.454896035468E+01  3.419249228660E+01
  3.382230081151E+01  3.343804682251E+01  3.303940229874E+01  3.262605284544E+01
  3.219770045548E+01  3.175406650034E+01  3.129489495707E+01  3.105940961235E+01
  3.081995587614E+01  3.057650968766E+01  3.032904909307E+01  3.007755437473E+01
  2.982200818435E+01  2.956239567971E+01  2.929870466510E+01  2.903092573521E+01
  2.875905242253E+01  2.848308134806E+01  2.820301237513E+01  2.791884876630E+01
  2.763059734300E+01  2.733826864781E+01  2.704187710912E+01  2.674144120778E+01
  2.643698364564E+01  2.612853151545E+01  2.581611647196E+01  2.549977490357E+01
  2.517954810439E+01  2.485548244595E+01  2.452762954829E+01  2.419604644971E+01
  2.386079577471E+01  2.352194589939E+01  2.317957111373E+01  2.283375177992E+01
  2.248457448608E+01  2.213213219448E+01  2.177652438346E+01  2.141785718209E+01
  2.105624349667E+01  2.069180312804E+01  2.032466287866E+01  1.995495664842E+01
  1.958282551795E+01  1.920841781840E+01  1.883188918635E+01  1.845340260269E+01
  1.807312841413E+01  1.769124433616E+01  1.730793543592E+01  1.692339409389E+01
  1.653781994281E+01  1.615141978263E+01  1.576440747005E+01  1.537700378132E+01
  1.498943624695E+01  1.460193895711E+01  1.421475233631E+01  1.382812288631E+01
  1.344230289604E+01  1.305755011743E+01  1.267412740632E+01  1.229230232740E+01
  1.191234672264E+01  1.153453624246E+01  1.115914983929E+01  1.078646922330E+01
  1.041677828015E+01  1.005036245095E+01  9.687508074935E+00  9.328501695357E+00
  8.973629329583E+00  8.623175704671E+00  8.277423459889E+00  7.936652318081E+00
  7.601138228090E+00  7.271152480798E+00  6.946960801760E+00  6.628822423750E+00
  6.316989142960E+00  6.011704362988E+00  5.713202131138E+00  5.421706171991E+00
  5.137428923552E+00  4.860570581708E+00  4.591318159063E+00  4.329844564587E+00
  4.076307710811E+00  3.830849655603E+00  3.593595785782E+00  3.364654050042E+00
  3.144114248762E+00  2.932047388388E+00  2.728505108058E+00  2.533519186056E+00
  2.347101133544E+00  2.169241882759E+00  1.999911576504E+00  1.839059465331E+00
  1.686613918224E+00  1.542482551958E+00  1.406552483484E+00  1.278690708813E+00
  1.158744610879E+00  1.046542597688E+00  9.418948708943E-01  8.445943235899E-01
  7.544175646898E-01  6.711260658284E-01  5.944674251345E-01  5.241767406786E-01
  4.599780847918E-01  4.015860688661E-01  3.487074866873E-01  3.010430228568E-01
  2.582890114492E-01  2.201392287712E-01  1.862867029558E-01  1.564255221883E-01
  1.302526226379E-01  1.074695367023E-01  8.778408198722E-02  7.091197156156E-02
  5.657832648028E-02  4.451907236060E-02  3.448220294859E-02  2.622889512111E-02
  1.953446162993E-02  1.418913009480E-02  9.998639266337E-03  6.784646374187E-03
  4.384942406032E-03  2.653475374339E-03  1.460184956688E-03  6.906552690270E-04
  2.455958698775E-04  4.016431195216E-05  3.146567236299E-06  7.601436310440E-05
  2.118807933002E-04  3.743774268851E-04  5.364774575562E-04  6.792901542514E-04
  7.908519464403E-04  8.649388773440E-04  8.999238803006E-04  8.977003957819E-04
  8.626912921368E-04  8.009589500495E-04  7.194288113936E-04  6.252347924920E-04
  5.251908538291E-04  4.253888517938E-04  3.309187309325E-04  2.457033077052E-04
  1.724365040170E-04  1.126110530034E-04  6.661954182929E-05  3.391126927127E-05
  1.318683707652E-05  2.612680714222E-06  3.885082539316E-08  3.205210736970E-06
  9.923704657436E-06  1.822732468533E-05  2.647968145460E-05  3.344246207890E-05
  3.830133140126E-05  4.065379593509E-05  4.046502228784E-05  3.799943546745E-05
  3.373701565771E-05  2.828351849231E-05  2.228337773560E-05  1.634288569049E-05
  1.096951685184E-05  6.531141682053E-06  3.236578650404E-06  1.136675477566E-06
  1.431087126993E-07  6.052949470020E-08  6.267000748429E-07  1.554935317132E-06
  2.573489539599E-06  3.457442784853E-06  4.050007514158E-06  4.271812018118E-06
  4.118407158600E-06  3.647772694065E-06  2.960777911792E-06  2.178238604287E-06
  1.418338411246E-06  7.777571026033E-07  3.189605581098E-07  6.491254338298E-08
  0.000000000000E+00  0.000000000000E+00  0.000000000000E+00  0.000000000000E+00
  0.000000000000E+00  0.000000000000E+00  0.000000000000E+00  0.000000000000E+00
  0.000000000000E+00  0.000000000000E+00  0.000000000000E+00  0.000000000000E+00
  0.000000000000E+00  0.000000000000E+00  0.000000000000E+00  0.000000000000E+00
  0.000000000000E+00  0.000000000000E+00  0.000000000000E+00  0.000000000000E+00
  0.000000000000E+00  0.000000000000E+00  0.000000000000E+00  0.000000000000E+00
  0.000000000000E+00  0.000000000000E+00  0.000000000000E+00  0.000000000000E+00
  0.000000000000E+00  0.000000000000E+00  0.000000000000E+00  0.000000000000E+00
  0.000000000000E+00  0.000000000000E+00  0.000000000000E+00
</data>
</radfunc>
</pseudocore-charge>
<semilocal-potentials set="scalar_relativistic">
<slps n="5" l="s" rc="1.71293614326" eref="-2.68982550749">
<radfunc>
<data npts="291">
 -6.335213969301E+00 -6.336062382739E+00 -6.338598118374E+00 -6.342827120442E+00
 -6.349029131877E+00 -6.356936827013E+00 -6.367005611580E+00 -6.378522228749E+00
 -6.391454871232E+00 -6.406514281098E+00 -6.423460354661E+00 -6.441845446906E+00
 -6.464017564314E+00 -6.487118927058E+00 -6.510140532249E+00 -6.536588965340E+00
 -6.566954094411E+00 -6.595647443516E+00 -6.627800590395E+00 -6.663806313334E+00
 -6.704095589255E+00 -6.739726411798E+00 -6.778659933822E+00 -6.821174144790E+00
 -6.867564731669E+00 -6.918145009104E+00 -6.973245541124E+00 -7.017745544518E+00
 -7.065135224058E+00 -7.115571156226E+00 -7.169213857641E+00 -7.226227153671E+00
 -7.286777409528E+00 -7.351032609127E+00 -7.419161266685E+00 -7.491331156003E+00
 -7.567707842655E+00 -7.648453004993E+00 -7.704787327087E+00 -7.763176966540E+00
 -7.823664379858E+00 -7.886289823389E+00 -7.951091001001E+00 -8.018102689490E+00
 -8.087356341771E+00 -8.158879668085E+00 -8.232696195672E+00 -8.308824807573E+00
 -8.387279261470E+00 -8.468067689721E+00 -8.551192082017E+00 -8.636647752370E+00
 -8.724422792417E+00 -8.814497513323E+00 -8.906843878840E+00 -9.001424932386E+00
 -9.098194221257E+00 -9.197095221366E+00 -9.298060766136E+00 -9.401012483391E+00
 -9.505860244293E+00 -9.612501628521E+00 -9.720821410021E+00 -9.830691067742E+00
 -9.941968325834E+00 -1.005449672779E+01 -1.016810524904E+01 -1.022525703999E+01
 -1.028260795229E+01 -1.034013236487E+01 -1.039780369023E+01 -1.045559436802E+01
 -1.051347585952E+01 -1.057141864309E+01 -1.062939221053E+01 -1.068736506446E+01
 -1.074530471673E+01 -1.080317768789E+01 -1.086094950774E+01 -1.091858471700E+01
 -1.097604687009E+01 -1.103329853918E+01 -1.109030131936E+01 -1.114701583509E+01
 -1.120340174792E+01 -1.125941776551E+01 -1.131502165201E+01 -1.137017023975E+01
 -1.142481944246E+01 -1.147892426978E+01 -1.153243884336E+01 -1.158531641448E+01
 -1.163750938315E+01 -1.168896931888E+01 -1.173964698308E+01 -1.178949235310E+01
 -1.183845464810E+01 -1.188648235654E+01 -1.193352326565E+01 -1.197952449262E+01
 -1.202443251780E+01 -1.206819321979E+01 -1.211075191251E+01 -1.215205338437E+01
 -1.219204193938E+01 -1.223066144049E+01 -1.226785535497E+01 -1.230356680189E+01
 -1.233773860187E+01 -1.237031332888E+01 -1.240123336423E+01 -1.243044095264E+01
 -1.245787826047E+01 -1.248348743593E+01 -1.250721067122E+01 -1.252899026668E+01
 -1.254876869654E+01 -1.256648867639E+01 -1.258209323212E+01 -1.259552577010E+01
 -1.260673014840E+01 -1.261565074888E+01 -1.262223254974E+01 -1.262642119830E+01
 -1.262816308369E+01 -1.262740540896E+01 -1.262409626236E+01 -1.261818468727E+01
 -1.260962075031E+01 -1.259835560733E+01 -1.258434156667E+01 -1.256753214931E+01
 -1.254788214550E+01 -1.252534766751E+01 -1.249988619816E+01 -1.247145663494E+01
 -1.244001932961E+01 -1.240553612341E+01 -1.236797037810E+01 -1.232728700340E+01
 -1.228345248165E+01 -1.223643489100E+01 -1.218620392869E+01 -1.213273093682E+01
 -1.207598893327E+01 -1.201595265154E+01 -1.195259859393E+01 -1.188590510336E+01