<?xml version="1.0" encoding="UTF-8" ?>
<psml version="1.1" energy_unit="hartree" length_unit="bohr"
 uuid="0b0aaa00-23d3-11e8-7d8f-38eaf9de0df4"
 xmlns="http://esl.cecam.org/PSML/ns/1.1">
<provenance creator="ONCVPSP-3.3.0+psml-3.3.0-73 (scalar-relativistic)"
 date="2018-03-09">
<annotation action="semilocal-pseudopotential-generation"
 action-cont="projectors-generation" />
<input-file name="oncvpsp-input">
<![CDATA[# atsym z nc nv iexc psfile
Tc 43 6 4 -001012 upf
# n l f
1 0 2.0
2 0 2.0
2 1 6.0
3 0 2.0
3 1 6.0
3 2 10.0
4 0 2.0
4 1 6.0
4 2 5.0
5 0 2.0
# lmax
2
# l rc ep ncon nbas qcut
0 1.4 0.0 4 8 8.4
1 1.4 0.0 4 8 9.0
2 1.35 0.0 4 8 9.2
# lloc lpopt rc5 dvloc0
4 5 1.2 0.0
# l nproj debl
0 2 1.0
1 2 2.0
2 2 1.5
# icmod fcfact rcfact
3 5.0 1.28
# epsh1 epsh2 depsh
-12.0 12.0 0.02
# rlmax drl
6.0 0.01
 0
]]>
</input-file>
</provenance>
<pseudo-atom-spec atomic-label="Tc" atomic-number="43" z-pseudo="15"
 flavor="Hamann&apos;s oncvpsp" relativity="scalar" spin-dft="no"
 core-corrections="yes">
<annotation pseudo-energy="-80.8714203500" />
<exchange-correlation>
<annotation oncvpsp-xc-code="-1012" oncvpsp-xc-type="libxc-interface" />
<libxc-info number-of-functionals="2">
<functional name="Slater exchange (LDA)" type="exchange" id="1" />
<functional name="Perdew &amp; Wang (LDA)" type="correlation" id="12" />
</libxc-info>
</exchange-correlation>
<valence-configuration total-valence-charge="15">
<shell n="4" l="s" occupation="2" />
<shell n="4" l="p" occupation="6" />
<shell n="4" l="d" occupation="5" />
<shell n="5" l="s" occupation="2" />
</valence-configuration>
</pseudo-atom-spec>
<grid npts="457">
<annotation type="sampled from oncvpsp log grid"
 recipe="r(i:1..N) = r1*exp(a*(i-1)) + r=0; resampled"
 recipe-cont="r1: scale; a: step" scale="0.116279069767E-04"
 step="0.119285708653E-01" delta="0.500000000000E-02" rmax="44.1318799948" />
<grid-data>
  0.000000000000E+00  5.039441559062E-03  1.006588903305E-02  1.510043866069E-02
  2.010582340092E-02  2.522037856629E-02  3.052388447908E-02  3.564400236410E-02
  4.112942271229E-02  4.634018239958E-02  5.159199851370E-02  5.675791737359E-02
  6.244110089536E-02  6.787879734231E-02  7.291505605902E-02  7.832497934927E-02
  8.413629120847E-02  8.930708755962E-02  9.479566752734E-02  1.006215612614E-01
  1.068054991833E-01  1.120251835497E-01  1.174999587597E-01  1.232422913408E-01
  1.292652570711E-01  1.355825707545E-01  1.422086174500E-01  1.473898075375E-01
  1.527597676953E-01  1.583253755208E-01  1.640937591880E-01  1.700723065768E-01
  1.762686747350E-01  1.826907996852E-01  1.893469065890E-01  1.962455202813E-01
  2.033954761885E-01  2.108059316443E-01  2.158956300580E-01  2.211082141501E-01
  2.264466508725E-01  2.319139788112E-01  2.375133099156E-01  2.432478312702E-01
  2.491208069084E-01  2.551355796704E-01  2.612955731059E-01  2.676042934230E-01
  2.740653314834E-01  2.806823648468E-01  2.874591598636E-01  2.943995738194E-01
  3.015075571297E-01  3.087871555890E-01  3.162425126735E-01  3.238778718995E-01
  3.316975792387E-01  3.397060855918E-01  3.479079493223E-01  3.563078388508E-01
  3.649105353120E-01  3.737209352766E-01  3.827440535379E-01  3.919850259665E-01
  4.014491124334E-01  4.111416998040E-01  4.210683050041E-01  4.261211246641E-01
  4.312345781601E-01  4.364093930980E-01  4.416463058152E-01  4.469460614850E-01
  4.523094142228E-01  4.577371271935E-01  4.632299727198E-01  4.687887323924E-01
  4.744141971812E-01  4.801071675473E-01  4.858684535579E-01  4.916988750006E-01
  4.975992615006E-01  5.035704526386E-01  5.096132980703E-01  5.157286576471E-01
  5.219174015389E-01  5.281804103573E-01  5.345185752816E-01  5.409327981850E-01
  5.474239917632E-01  5.539930796644E-01  5.606409966204E-01  5.673686885798E-01
  5.741771128428E-01  5.810672381969E-01  5.880400450552E-01  5.950965255959E-01
  6.022376839031E-01  6.094645361099E-01  6.167781105432E-01  6.241794478697E-01
  6.316696012442E-01  6.392496364591E-01  6.469206320966E-01  6.546836796818E-01
  6.625398838379E-01  6.704903624440E-01  6.785362467933E-01  6.866786817549E-01
  6.949188259359E-01  7.032578518471E-01  7.116969460693E-01  7.202373094221E-01
  7.288801571352E-01  7.376267190208E-01  7.464782396491E-01  7.554359785249E-01
  7.645012102672E-01  7.736752247904E-01  7.829593274879E-01  7.923548394177E-01
  8.018630974907E-01  8.114854546606E-01  8.212232801165E-01  8.310779594779E-01
  8.410508949917E-01  8.511435057316E-01  8.613572278003E-01  8.716935145340E-01
  8.821538367084E-01  8.927396827489E-01  9.034525589418E-01  9.142939896491E-01
  9.252655175249E-01  9.363687037352E-01  9.476051281801E-01  9.589763897182E-01
  9.704841063948E-01  9.821299156716E-01  9.939154746596E-01  1.005842460356E+00
  1.017912569880E+00  1.030127520718E+00  1.042489050967E+00  1.054998919579E+00
  1.067658906614E+00  1.080470813493E+00  1.093436463255E+00  1.106557700814E+00
  1.119836393224E+00  1.133274429942E+00  1.146873723102E+00  1.160636207779E+00
  1.174563842272E+00  1.188658608379E+00  1.202922511680E+00  1.217357581820E+00
  1.231965872802E+00  1.246749463276E+00  1.261710456835E+00  1.276850982317E+00
  1.292173194105E+00  1.307679272434E+00  1.323371423703E+00  1.339251880788E+00
  1.355322903357E+00  1.371586778197E+00  1.388045819536E+00  1.404702369370E+00
  1.421558797803E+00  1.438617503376E+00  1.455880913417E+00  1.473351484378E+00
  1.491031702190E+00  1.508924082617E+00  1.527031171608E+00  1.545355545667E+00
  1.563899812215E+00  1.582666609962E+00  1.601658609281E+00  1.620878512593E+00
  1.640329054744E+00  1.660013003401E+00  1.679933159442E+00  1.700092357355E+00
  1.720493465643E+00  1.741139387231E+00  1.762033059878E+00  1.783177456596E+00
  1.804575586075E+00  1.826230493108E+00  1.848145259026E+00  1.870323002134E+00
  1.892766878160E+00  1.915480080697E+00  1.938465841666E+00  1.961727431766E+00
  1.985268160947E+00  2.009091378878E+00  2.033200475425E+00  2.057598881130E+00
  2.082290067704E+00  2.107277548516E+00  2.132564879098E+00  2.158155657647E+00
  2.184053525539E+00  2.210262167846E+00  2.236785313860E+00  2.263626737626E+00
  2.290790258478E+00  2.318279741579E+00  2.346099098478E+00  2.374252287660E+00
  2.402743315112E+00  2.431576234893E+00  2.460755149712E+00  2.490284211509E+00
  2.520167622047E+00  2.550409633511E+00  2.581014549113E+00  2.611986723703E+00
  2.643330564387E+00  2.675050531160E+00  2.707151137534E+00  2.739636951184E+00
  2.772512594598E+00  2.805782745734E+00  2.839452138682E+00  2.873525564347E+00
  2.908007871119E+00  2.942903965572E+00  2.978218813159E+00  3.013957438917E+00
  3.050124928184E+00  3.086726427322E+00  3.123767144450E+00  3.161252350183E+00
  3.199187378386E+00  3.237577626926E+00  3.276428558449E+00  3.315745701151E+00
  3.355534649564E+00  3.395801065359E+00  3.436550678144E+00  3.477789286281E+00
  3.519522757717E+00  3.561757030809E+00  3.604498115179E+00  3.647752092561E+00
  3.691525117672E+00  3.735823419084E+00  3.780653300113E+00  3.826021139714E+00
  3.871933393391E+00  3.918396594112E+00  3.965417353241E+00  4.013002361480E+00
  4.061158389818E+00  4.109892290495E+00  4.159210997981E+00  4.209121529957E+00
  4.259630988317E+00  4.310746560176E+00  4.362475518898E+00  4.414825225125E+00
  4.467803127827E+00  4.521416765361E+00  4.575673766545E+00  4.630581851744E+00
  4.686148833964E+00  4.742382619972E+00  4.799291211412E+00  4.856882705949E+00
  4.915165298420E+00  4.974147282001E+00  5.033837049385E+00  5.094243093978E+00
  5.155374011105E+00  5.217238499239E+00  5.279845361230E+00  5.343203505564E+00
  5.407321947631E+00  5.472209811003E+00  5.537876328735E+00  5.604330844679E+00
  5.671582814816E+00  5.739641808593E+00  5.808517510297E+00  5.878219720420E+00
  5.948758357065E+00  6.020143457350E+00  6.092385178838E+00  6.165493800984E+00
  6.239479726596E+00  6.314353483315E+00  6.390125725115E+00  6.466807233816E+00
  6.544408920622E+00  6.622941827670E+00  6.702417129602E+00  6.782846135157E+00
  6.864240288779E+00  6.946611172244E+00  7.029970506311E+00  7.114330152387E+00
  7.199702114215E+00  7.286098539586E+00  7.373531722061E+00  7.462014102726E+00
  7.551558271958E+00  7.642176971222E+00  7.733883094877E+00  7.826689692015E+00
  7.920609968319E+00  8.015657287939E+00  8.111845175394E+00  8.209187317499E+00
  8.307697565309E+00  8.407389936093E+00  8.508278615326E+00  8.610377958710E+00
  8.713702494214E+00  8.818266924145E+00  8.924086127235E+00  9.031175160761E+00
  9.139549262691E+00  9.249223853843E+00  9.360214540089E+00  9.472537114570E+00
  9.586207559945E+00  9.701242050664E+00  9.817656955272E+00  9.935468838736E+00
  1.005469446480E+01  1.017535079838E+01  1.029745500796E+01  1.042102446805E+01
  1.054607676167E+01  1.067262968281E+01  1.080070123900E+01  1.093030965387E+01
  1.106147336972E+01  1.119421105016E+01  1.132854158276E+01  1.146448408175E+01
  1.160205789073E+01  1.174128258542E+01  1.188217797645E+01  1.202476411216E+01
  1.216906128151E+01  1.231509001689E+01  1.246287109709E+01  1.261242555025E+01
  1.276377465686E+01  1.291693995274E+01  1.307194323217E+01  1.322880655096E+01
  1.338755222957E+01  1.354820285633E+01  1.371078129060E+01  1.387531066609E+01
  1.404181439408E+01  1.421031616681E+01  1.438083996081E+01  1.455341004034E+01
  1.472805096083E+01  1.490478757236E+01  1.508364502322E+01  1.526464876350E+01
  1.544782454866E+01  1.563319844325E+01  1.582079682457E+01  1.601064638646E+01
  1.620277414310E+01  1.639720743282E+01  1.659397392201E+01  1.679310160908E+01
  1.699461882838E+01  1.719855425432E+01  1.740493690538E+01  1.761379614824E+01
  1.782516170202E+01  1.803906364244E+01  1.825553240615E+01  1.847459879503E+01
  1.869629398057E+01  1.892064950833E+01  1.914769730243E+01  1.937746967006E+01
  1.960999930610E+01  1.984531929778E+01  2.008346312935E+01  2.032446468690E+01
  2.056835826315E+01  2.081517856230E+01  2.106496070505E+01  2.131774023351E+01
  2.157355311631E+01  2.183243575371E+01  2.209442498275E+01  2.235955808255E+01
  2.262787277954E+01  2.289940725289E+01  2.317420013993E+01  2.345229054161E+01
  2.373371802811E+01  2.401852264444E+01  2.430674491618E+01  2.459842585517E+01
  2.489360696543E+01  2.519233024902E+01  2.549463821201E+01  2.580057387055E+01
  2.611018075700E+01  2.642350292608E+01  2.674058496119E+01  2.706147198073E+01
  2.738620964450E+01  2.771484416023E+01  2.804742229015E+01  2.838399135764E+01
  2.872459925393E+01  2.906929444497E+01  2.941812597831E+01  2.977114349005E+01
  3.012839721193E+01  3.048993797848E+01  3.085581723422E+01  3.122608704103E+01
  3.160080008552E+01  3.198000968655E+01  3.236376980279E+01  3.275213504042E+01
  3.314516066091E+01  3.354290258884E+01  3.394541741990E+01  3.435276242894E+01
  3.476499557809E+01  3.518217552503E+01  3.560436163133E+01  3.603161397090E+01
  3.646399333855E+01  3.690156125862E+01  3.734437999372E+01  3.779251255364E+01
  3.824602270429E+01  3.870497497674E+01  3.916943467646E+01  3.963946789258E+01
  4.011514150729E+01  4.059652320537E+01  4.108368148384E+01  4.157668566165E+01
  4.207560588959E+01  4.258051316026E+01  4.309147931818E+01  4.360857707000E+01
  4.413187999484E+01
</grid-data>
</grid>
<valence-charge total-charge="15" is-unscreening-charge="yes"
 rescaled-to-z-pseudo="no">
<radfunc>
<data npts="457">
  1.199646451767E-01  1.205934388714E-01  1.224741398178E-01  1.256152159453E-01
  1.299894960632E-01  1.357537925498E-01  1.431210253256E-01  1.515856359018E-01
  1.621405584399E-01  1.736047385279E-01  1.865920600986E-01  2.007866924518E-01
  2.180504161776E-01  2.362073897393E-01  2.544748602406E-01  2.756760498340E-01
  3.003014627159E-01  3.238524218914E-01  3.505701109979E-01  3.809022390603E-01
  4.153645868538E-01  4.463051044157E-01  4.806145606281E-01  5.186821963841E-01
  5.609455197019E-01  6.078965778653E-01  6.600890001235E-01  7.030449328518E-01
  7.495893118140E-01  8.000404195543E-01  8.547459499960E-01  9.140855909166E-01
  9.784737540985E-01  1.048362435964E+00  1.124244182003E+00  1.206655116242E+00
  1.296177981958E+00  1.393445121152E+00  1.462928173106E+00  1.536372703187E+00
  1.614006239584E+00  1.696067710112E+00  1.782807623658E+00  1.874488175639E+00
  1.971383260838E+00  2.073778374701E+00  2.181970381730E+00  2.296267126927E+00
  2.416986863438E+00  2.544457466546E+00  2.679015401043E+00  2.821004405823E+00
  2.970773856318E+00  3.128676762208E+00  3.295067354856E+00  3.470298216129E+00
  3.654716897975E+00  3.848661980403E+00  4.052458514613E+00  4.266412798233E+00
  4.490806431167E+00  4.725889603850E+00  4.971873575100E+00  5.228922304627E+00
  5.497143216152E+00  5.776577081406E+00  6.067187033564E+00  6.216647398142E+00
  6.368846741378E+00  6.523753224534E+00  6.681327802947E+00  6.841523796250E+00
  7.004286450996E+00  7.169552497164E+00  7.337249700167E+00  7.507296410233E+00
  7.679601111228E+00  7.854061971218E+00  8.030566397305E+00  8.208990597538E+00
  8.389199152908E+00  8.571044602745E+00  8.754367047069E+00  8.938993769700E+00
  9.124738886236E+00  9.311403021224E+00  9.498773019137E+00  9.686621693978E+00
  9.874707622617E+00  1.006277498712E+01  1.025055347154E+01  1.043775821887E+01
  1.062408985389E+01  1.080923457772E+01  1.099286434018E+01  1.117463709570E+01
  1.135419714874E+01  1.153117559455E+01  1.170519086076E+01  1.187584935511E+01
  1.204274622452E+01  1.220546622981E+01  1.236358474041E+01  1.251666885231E+01
  1.266427863219E+01  1.280596848954E+01  1.294128867798E+01  1.306978692554E+01
  1.319101019309E+01  1.330450655838E+01  1.340982722196E+01  1.350652863000E+01
  1.359417470733E+01  1.367233919222E+01  1.374060806332E+01  1.379858204675E+01
  1.384587919006E+01  1.388213748784E+01  1.390701754179E+01  1.392020523669E+01
  1.392141441156E+01  1.391038950398E+01  1.388690814393E+01  1.385078367208E+01
  1.380186755639E+01  1.374005167976E+01  1.366527047084E+01  1.357750284961E+01
  1.347677395929E+01  1.336315665608E+01  1.323677272931E+01  1.309779382500E+01
  1.294644204769E+01  1.278299021710E+01  1.260776175839E+01  1.242113020780E+01
  1.222351831856E+01  1.201539675563E+01  1.179728237205E+01  1.156973606421E+01
  1.133336020824E+01  1.108879568491E+01  1.083671850610E+01  1.057783606139E+01
  1.031288300946E+01  1.004261684442E+01  9.767813173431E+00  9.489260747318E+00
  9.207756291128E+00  8.924099186684E+00  8.639086063217E+00  8.353505355820E+00
  8.068131894160E+00  7.783721585514E+00  7.501006256839E+00  7.220688719886E+00
  6.943438121565E+00  6.669885638885E+00  6.400620573487E+00  6.136186894697E+00
  5.877080272967E+00  5.623745637930E+00  5.376575286962E+00  5.135907561429E+00
  4.902026099249E+00  4.675159536364E+00  4.455481251135E+00  4.243109527172E+00
  4.038110887324E+00  3.840509831391E+00  3.650301045934E+00  3.467452957866E+00
  3.291908423504E+00  3.123587539834E+00  2.962389644595E+00  2.808195398685E+00
  2.660868803418E+00  2.520259154944E+00  2.386202927849E+00  2.258525581104E+00
  2.137043280699E+00  2.021564534369E+00  1.911891734874E+00  1.807822609267E+00
  1.709151572507E+00  1.615670984620E+00  1.527172311401E+00  1.443447189369E+00
  1.364288396318E+00  1.289490729404E+00  1.218851793223E+00  1.152172700749E+00
  1.089258690421E+00  1.029919662980E+00  9.739706418831E-01  9.212321613983E-01
  8.715305865877E-01  8.246983693994E-01  7.805742455019E-01  7.390033760093E-01
  6.998374386163E-01  6.629346724522E-01  6.281598809105E-01  5.953843965972E-01
  5.644860124163E-01  5.353488826531E-01  5.078633977528E-01  4.819260363111E-01
  4.574391975996E-01  4.343110177534E-01  4.124551725437E-01  3.917906694510E-01
  3.722416315493E-01  3.537370755054E-01  3.362106857951E-01  3.196005870397E-01
  3.038491161765E-01  2.889025959883E-01  2.747111113430E-01  2.612282893236E-01
  2.484110842697E-01  2.362195686031E-01  2.246167301670E-01  2.135682766804E-01
  2.030424477875E-01  1.930098350726E-01  1.834432103079E-01  1.743173621139E-01
  1.656089411260E-01  1.572963136901E-01  1.493594240452E-01  1.417796648914E-01
  1.345397561956E-01  1.276236320430E-01  1.210163353069E-01  1.147039198790E-01
  1.086733601810E-01  1.029124676552E-01  9.740981392097E-02  9.215466027174E-02
  8.713689318264E-02  8.234696549364E-02  7.777584293518E-02  7.341495566472E-02
  6.925615448765E-02  6.529167144314E-02  6.151408444322E-02  5.791628566392E-02
  5.449145339729E-02  5.123302708549E-02  4.813468527006E-02  4.519032620236E-02
  4.239405087435E-02  3.974014824211E-02  3.722308242761E-02  3.483748169772E-02
  3.257812903211E-02  3.043995410493E-02  2.841802651643E-02  2.650755012470E-02
  2.470385833723E-02  2.300241023441E-02  2.139878740711E-02  1.988869140117E-02
  1.846794167066E-02  1.713247395142E-02  1.587833897466E-02  1.470170144870E-02
  1.359883924436E-02  1.256614272685E-02  1.160011418341E-02  1.069736730231E-02
  9.854626664637E-03  9.068727215325E-03  8.336613685190E-03  7.655339940056E-03
  7.022068237315E-03  6.434068374105E-03  5.888716714821E-03  5.383495088851E-03
  4.915989552377E-03  4.483889010680E-03  4.084983699792E-03  3.717163528429E-03
  3.378416283048E-03  3.066825700519E-03  2.780569414344E-03  2.517916781648E-03
  2.277226599162E-03  2.056944717363E-03  1.855601562624E-03  1.671809577783E-03
  1.504260591966E-03  1.351723130764E-03  1.213039678010E-03  1.087123900427E-03
  9.729578463462E-04  8.695891294922E-04  7.761281085776E-04  6.917450730815E-04
  6.156674451642E-04  5.471770071804E-04  4.856071637047E-04  4.303402463964E-04
  3.808048694027E-04  3.364733423415E-04  2.968591472327E-04  2.615144850553E-04
  2.300278969147E-04  2.020219641120E-04  1.771510907210E-04  1.550993716110E-04
  1.355785481966E-04  1.183260535728E-04  1.031031480925E-04  8.969314587371E-05
  7.789973219511E-05  6.754537123996E-05  5.846980319461E-05  5.052862929129E-05
  4.359198301181E-05  3.754328533641E-05  3.227808163162E-05  2.770295752151E-05
  2.373453087695E-05  2.029851688663E-05  1.732886303941E-05  1.476695074836E-05
  1.256086028045E-05  1.066469562013E-05  9.037965886947E-06  7.645019945246E-06
  6.454530884340E-06  5.439027108691E-06  4.574466856158E-06  3.839853056483E-06
  3.216885548940E-06  2.689647795525E-06  2.244325351770E-06  1.868953489313E-06
  1.553191500798E-06  1.288121356788E-06  1.066068524528E-06  8.804428982485E-07
  7.255979289918E-07  5.967061774930E-07  4.896496457165E-07  4.009233702673E-07
  3.275508835650E-07  2.670102658299E-07  2.171696222217E-07  1.762309246331E-07
  1.426812565086E-07  1.152505915623E-07  9.287532342213E-08  7.466684310020E-08
  5.988453493015E-08  4.791262939582E-08  3.824041333584E-08  3.044535459785E-08
  2.417874961726E-08  1.915354890328E-08  1.513405733871E-08  1.192724384979E-08
  9.375428691370E-09  7.350146627980E-09  5.747010974122E-09  4.481427077054E-09
  3.485024661386E-09  2.702696770430E-09  2.090149084034E-09  1.611877399466E-09
  1.239503247873E-09  9.504081842663E-10  7.266164182465E-10  5.538833140485E-10
  4.209540350646E-10  3.189623781545E-10  2.409447612815E-10  1.814485058211E-10
  1.362170916070E-10  1.019380465317E-10  7.604164110929E-11  5.654066023596E-11
  4.190327930167E-11  3.095253193022E-11  2.278706765357E-11  1.671889632516E-11
  1.217125421786E-11  8.870345751469E-12  6.441945286257E-12  4.661726347086E-12
  3.361332956850E-12  2.414864782455E-12  1.728510013763E-12  1.232621692573E-12
  8.756838072274E-13  6.197334970584E-13  4.369010064130E-13  3.068043928569E-13
  2.145953629753E-13  1.494991919887E-13  1.037280877842E-13  7.167569517617E-14
  4.932240094782E-14  3.379805670442E-14  2.306177232585E-14  1.566841233984E-14
  1.059903496967E-14  7.138287930108E-15  4.786138984468E-15  3.194602885678E-15
  2.122586119514E-15  1.403805294228E-15  9.240968851104E-16  6.054424608994E-16
  3.947738265391E-16  2.561645333908E-16  1.654091716068E-16  1.062782920528E-16
  6.794352673978E-17  4.321594135795E-17  2.734675222567E-17  1.721498363946E-17
  1.078001641201E-17  6.714547017458E-18  4.159783364759E-18  2.563027567324E-18
  1.570492769798E-18  9.569514236337E-19  5.798103596413E-19  3.492968437334E-19
  2.092117605937E-19  1.245747539353E-19  7.373877114862E-20  4.338630860499E-20
  2.537284184868E-20  1.474733038315E-20  8.518310936381E-21  4.889414492139E-21
  2.788628241934E-21  1.580234344610E-21  8.896430312276E-22  4.975530079865E-22
  2.764124926878E-22  1.525231270125E-22  8.358684719498E-23  4.549128597645E-23
  2.458502071237E-23  0.000000000000E+00  0.000000000000E+00  0.000000000000E+00
  0.000000000000E+00  0.000000000000E+00  0.000000000000E+00  0.000000000000E+00
  0.000000000000E+00
</data>
</radfunc>
</valence-charge>
<pseudocore-charge matching-radius="0.720237309422"
 number-of-continuous-derivatives="4">
<annotation model-charge-form="Teter function with specified parameters" />
<radfunc>
<data npts="290">
  6.936795283836E+01  6.936140424653E+01  6.934182942159E+01  6.930917561600E+01
  6.926378336559E+01  6.920411102798E+01  6.912808184660E+01  6.904105271935E+01
  6.893301295291E+01  6.881626268324E+01  6.868473990980E+01  6.854187360313E+01
  6.836933662352E+01  6.818928589488E+01  6.800956930578E+01  6.780274645514E+01
  6.756482655286E+01  6.733954369448E+01  6.708656202266E+01  6.680259582118E+01
  6.648400180787E+01  6.620149955885E+01  6.589200869468E+01  6.555309339921E+01
  6.518212790000E+01  6.477628810761E+01  6.433254444001E+01  6.397292089517E+01
  6.358871181939E+01  6.317840297453E+01  6.274041248213E+01  6.227309199780E+01
  6.177472876984E+01  6.124354873562E+01  6.067772082688E+01  6.007536267336E+01
  5.943454791278E+01  5.875331533402E+01  5.827572635073E+01  5.777870073585E+01
  5.726164729907E+01  5.672397719148E+01  5.616510648095E+01  5.558445900777E+01
  5.498146953818E+01  5.435558723228E+01  5.370627944302E+01  5.303303586167E+01
  5.233537302420E+01  5.161283919125E+01  5.086501961220E+01  5.009154218136E+01
  4.929208349078E+01  4.846637528019E+01  4.761421127985E+01  4.673545443636E+01
  4.583004450484E+01  4.489800598315E+01  4.393945635531E+01  4.295461460112E+01
  4.194380991786E+01  4.090749058773E+01  3.984623291096E+01  3.876075010941E+01
  3.765190108986E+01  3.652069893849E+01  3.536831900055E+01  3.478460088509E+01
  3.419610637980E+01  3.360303125304E+01  3.300558267379E+01  3.240397936579E+01
  3.179845174140E+01  3.118924201307E+01  3.057660428063E+01  2.996080459227E+01
  2.934212097712E+01  2.872084344743E+01  2.809727396802E+01  2.747172639093E+01
  2.684452635302E+01  2.621601113431E+01  2.558652947483E+01  2.495644134781E+01
  2.432611768706E+01  2.369594006634E+01  2.306630032885E+01  2.243760016473E+01
  2.181025063472E+01  2.118467163846E+01  2.056129132559E+01  1.994054544849E+01
  1.932287665539E+01  1.870873372292E+01  1.809857072741E+01  1.749284615459E+01
  1.689202194761E+01  1.629656249363E+01  1.570693354980E+01  1.512360110952E+01
  1.454703021072E+01  1.397768368807E+01  1.341602087173E+01  1.286249623569E+01
  1.231755799932E+01  1.178164668649E+01  1.125519364692E+01  1.073861954541E+01
  1.023233282500E+01  9.736728150850E+00  9.252184842257E+00  8.779065300900E+00
  8.317713444054E+00  7.868453152081E+00  7.431586740160E+00  7.007393464743E+00
  6.596128075738E+00  6.198019425891E+00  5.813269149198E+00  5.442050420518E+00
  5.084506808735E+00  4.740751235960E+00  4.410865055242E+00  4.094897259123E+00
  3.792863831123E+00  3.504747251777E+00  3.230496170321E+00  2.970025252313E+00
  2.723215212602E+00  2.489913041921E+00  2.269932434094E+00  2.063054419377E+00
  1.869028207788E+00  1.687572244449E+00  1.518375476949E+00  1.361098832602E+00
  1.215376901131E+00  1.080819815943E+00  9.570153246231E-01  8.435310367109E-01
  7.399168342352E-01  6.457074278998E-01  5.604250392804E-01  4.835821869741E-01
  4.146845523659E-01  3.532338986100E-01  2.987310146082E-01  2.506786542682E-01
  2.085844401831E-01  1.719637001508E-01  1.403422046889E-01  1.132587739366E-01
  9.026772311575E-02  7.094111706036E-02  5.487080624345E-02  4.167021923190E-02
  3.097588957315E-02  2.244869873981E-02  1.577482088678E-02  1.066635975490E-02
  6.861673010795E-03  4.125384555650E-03  2.248090759699E-03  1.045772066484E-03
  3.589268298510E-04  5.144945846621E-05  9.279802919129E-06  1.388550839624E-04
  3.653993861416E-04  6.310886968414E-04  8.931315394211E-04  1.121806333588E-03
  1.298496645191E-03  1.413764420636E-03  1.465499132662E-03  1.457177527087E-03
  1.396264427554E-03  1.292779941376E-03  1.158052567685E-03  1.003671328905E-03
  8.406433483503E-04  6.787565241399E-04  5.261403600170E-04  3.890118675974E-04
  2.715880030173E-04  1.761415728519E-04  1.031741331733E-04  5.167725806287E-05
  1.945275817654E-05  3.463008348436E-06  1.844469379794E-07  5.940417842617E-06
  1.719364933137E-05  3.078355207908E-05  4.409887414180E-05  5.518174434444E-05
  6.276442828985E-05  6.624488551988E-05  6.561116000944E-05  6.132752424455E-05
  5.419697126341E-05  4.521504177364E-05  3.542911609298E-05  2.581532326418E-05
  1.718234262560E-05  1.010789005517E-05  4.909934462648E-06  1.651040586946E-06
  1.710269793749E-07  1.406590570259E-07  1.127582279554E-06  2.665252507540E-06
  4.316235474196E-06  5.722803559484E-06  6.640029282040E-06  6.949255298150E-06
  6.652561215050E-06  5.851299069296E-06  4.713627400536E-06  3.437019122333E-06
  2.211847049915E-06  1.191390003509E-06  4.721066332729E-07  8.605389004200E-08
  0.000000000000E+00  0.000000000000E+00  0.000000000000E+00  0.000000000000E+00
  0.000000000000E+00  0.000000000000E+00  0.000000000000E+00  0.000000000000E+00
  0.000000000000E+00  0.000000000000E+00  0.000000000000E+00  0.000000000000E+00
  0.000000000000E+00  0.000000000000E+00  0.000000000000E+00  0.000000000000E+00
  0.000000000000E+00  0.000000000000E+00  0.000000000000E+00  0.000000000000E+00
  0.000000000000E+00  0.000000000000E+00  0.000000000000E+00  0.000000000000E+00
  0.000000000000E+00  0.000000000000E+00  0.000000000000E+00  0.000000000000E+00
  0.000000000000E+00  0.000000000000E+00  0.000000000000E+00  0.000000000000E+00
  0.000000000000E+00  0.000000000000E+00  0.000000000000E+00  0.000000000000E+00
  0.000000000000E+00  0.000000000000E+00  0.000000000000E+00  0.000000000000E+00
  0.000000000000E+00  0.000000000000E+00  0.000000000000E+00  0.000000000000E+00
  0.000000000000E+00  0.000000000000E+00  0.000000000000E+00  0.000000000000E+00
  0.000000000000E+00  0.000000000000E+00  0.000000000000E+00  0.000000000000E+00
  0.000000000000E+00  0.000000000000E+00  0.000000000000E+00  0.000000000000E+00
  0.000000000000E+00  0.000000000000E+00  0.000000000000E+00  0.000000000000E+00
  0.000000000000E+00  0.000000000000E+00  0.000000000000E+00  0.000000000000E+00
  0.000000000000E+00  0.000000000000E+00
</data>
</radfunc>
</pseudocore-charge>
<semilocal-potentials set="scalar_relativistic">
<slps n="4" l="s" rc="1.40470236937" eref="-2.69707643779">
<radfunc>
<data npts="290">
  5.274929382818E+01  5.270307374195E+01  5.256521877029E+01  5.233626855334E+01
  5.202009044486E+01  5.160809560584E+01  5.108908577122E+01  5.050297460968E+01
  4.978696606546E+01  4.902731328081E+01  4.818856227150E+01  4.729727158391E+01
  4.624740303541E+01  4.518157729222E+01  4.414681518768E+01  4.299041996553E+01
  4.170364087074E+01  4.052601578648E+01  3.924850681584E+01  3.786811907798E+01
  3.638293756465E+01  3.511888006831E+01  3.378771001279E+01  3.239049029199E+01
  3.092902573078E+01  2.940590639425E+01  2.782453545451E+01  2.660279094545E+01
  2.535272366560E+01  2.407666691125E+01  2.277719230605E+01  2.145709414395E+01
  2.011936969250E+01  1.876719569721E+01  1.740390145283E+01  1.603293892572E+01
  1.465785051741E+01  1.328223514765E+01  1.236665358840E+01  1.145351814761E+01
  1.054389251784E+01  9.638828728816E+00  8.739362837811E+00  7.846510809383E+00
  6.961264623902E+00  6.084588651045E+00  5.217416320457E+00  4.360647117461E+00
  3.515143927024E+00  2.681730744335E+00  1.861190765332E+00  1.054264865489E+00
  2.616504702445E-01 -5.159991843868E-01 -1.278075407022E+00 -2.024014032259E+00
 -2.753295042421E+00 -3.465441847557E+00 -4.160020244730E+00 -4.836637080424E+00
 -5.494938642276E+00 -6.134608808351E+00 -6.755366983800E+00 -7.356965856035E+00
 -7.939189000567E+00 -8.501848370351E+00 -9.044781702001E+00 -9.308806796417E+00
 -9.567849872531E+00 -9.821896719320E+00 -1.007093424040E+01 -1.031495037242E+01
 -1.055393400459E+01 -1.078787489946E+01 -1.101676361535E+01 -1.124059143058E+01
 -1.145935026980E+01 -1.167303263267E+01 -1.188163152512E+01 -1.208514039344E+01
 -1.228355306139E+01 -1.247686367072E+01 -1.266506662500E+01 -1.284815653740E+01
 -1.302612818222E+01 -1.319897645062E+01 -1.336669631066E+01 -1.352928277176E+01
 -1.368673085384E+01 -1.383903556114E+01 -1.398619186095E+01 -1.412819466734E+01
 -1.426503882981E+01 -1.439671912708E+01 -1.452323026600E+01 -1.464456688544E+01
 -1.476072356526E+01 -1.487169484022E+01 -1.497747521867E+01 -1.507805920597E+01
 -1.517344133233E+01 -1.526361618490E+01 -1.534857844382E+01 -1.542832292192E+01
 -1.550284460773E+01 -1.557213871134E+01 -1.563620071284E+01 -1.569502641265E+01
 -1.574861198353E+01 -1.579695402362E+01 -1.584004960998E+01 -1.587789635231E+01
 -1.591049244621E+01 -1.593783672560E+01 -1.595992871398E+01 -1.597676867410E+01
 -1.598835765600E+01 -1.599469754314E+01 -1.599579109696E+01 -1.599164200005E+01
 -1.598225489838E+01 -1.596763544379E+01 -1.594779033752E+01 -1.592272737680E+01
 -1.589245550629E+01 -1.585698487727E+01 -1.581632691763E+01 -1.577049441684E+01
 -1.571950163041E+01 -1.566336440964E+01 -1.560210036306E+01 -1.553572905718E+01
 -1.546427226507E+01 -1.538775427269E+01 -1.530620225363E+01 -1.521964672471E+01
 -1.512812209537E+01 -1.503166732548E+01 -1.493032670683E+01 -1.482415078462E+01
 -1.471319743553E+01 -1.459753311958E+01 -1.447723432245E+01 -1.435238920412E+01
 -1.422309946826E+01 -1.408948246413E+01 -1.395167352930E+01 -1.380982857635E+01
 -1.366412692056E+01 -1.351477433705E+01 -1.336200632578E+01 -1.320609155061E+01
 -1.304733540347E+01 -1.288608362814E+01 -1.272272591808E+01 -1.255769938146E+01