<?xml version="1.0" encoding="UTF-8" ?>
<psml version="1.1" energy_unit="hartree" length_unit="bohr"
 uuid="5cf0d9c0-23d3-11e8-7d31-463d7fb2a42f"
 xmlns="http://esl.cecam.org/PSML/ns/1.1">
<provenance creator="ONCVPSP-3.3.0+psml-3.3.0-73 (scalar-relativistic)"
 date="2018-03-09">
<annotation action="semilocal-pseudopotential-generation"
 action-cont="projectors-generation" />
<input-file name="oncvpsp-input">
<![CDATA[# atsym z nc nv iexc psfile
Te 52 8 3 -001012 upf
# n l f
1 0 2.0
2 0 2.0
2 1 6.0
3 0 2.0
3 1 6.0
3 2 10.0
4 0 2.0
4 1 6.0
4 2 10.0
5 0 2.0
5 1 4.0
# lmax
2
# l rc ep ncon nbas qcut
0 2.25 0.0 4 8 4.2
1 1.9 0.0 4 8 4.8
2 1.8 0.0 4 9 8.4
# lloc lpopt rc5 dvloc0
4 5 1.8 0.0
# l nproj debl
0 2 3.0
1 2 3.5
2 2 1.6
# icmod fcfact rcfact
3 5.0 1.43
# epsh1 epsh2 depsh
-12.0 12.0 0.02
# rlmax drl
6.0 0.01
 0
]]>
</input-file>
</provenance>
<pseudo-atom-spec atomic-label="Te" atomic-number="52" z-pseudo="16"
 flavor="Hamann&apos;s oncvpsp" relativity="scalar" spin-dft="no"
 core-corrections="yes">
<annotation pseudo-energy="-93.3244318302" />
<exchange-correlation>
<annotation oncvpsp-xc-code="-1012" oncvpsp-xc-type="libxc-interface" />
<libxc-info number-of-functionals="2">
<functional name="Slater exchange (LDA)" type="exchange" id="1" />
<functional name="Perdew &amp; Wang (LDA)" type="correlation" id="12" />
</libxc-info>
</exchange-correlation>
<valence-configuration total-valence-charge="16">
<shell n="4" l="d" occupation="10" />
<shell n="5" l="s" occupation="2" />
<shell n="5" l="p" occupation="4" />
</valence-configuration>
</pseudo-atom-spec>
<grid npts="457">
<annotation type="sampled from oncvpsp log grid"
 recipe="r(i:1..N) = r1*exp(a*(i-1)) + r=0; resampled"
 recipe-cont="r1: scale; a: step" scale="0.961538461538E-05"
 step="0.119285708653E-01" delta="0.500000000000E-02" rmax="44.1677972533" />
<grid-data>
  0.000000000000E+00  5.043542968859E-03  1.007408127726E-02  1.511272833334E-02
  2.012218676581E-02  2.524090447309E-02  3.054872670761E-02  3.567301166182E-02
  4.067479879938E-02  4.582796137488E-02  5.102172656014E-02  5.613054395614E-02
  6.175090843111E-02  6.712849932167E-02  7.297439884964E-02  7.838872507068E-02
  8.420476653556E-02  8.937977120117E-02  9.487281811536E-02  1.007034533227E-01
  1.068924241165E-01  1.121163565855E-01  1.175955875068E-01  1.233425935539E-01
  1.293704611469E-01  1.356929162517E-01  1.423243556345E-01  1.475097624955E-01
  1.528840930596E-01  1.584542305217E-01  1.642273088569E-01  1.702107219580E-01
  1.764121331045E-01  1.828394847779E-01  1.895010088340E-01  1.964052370456E-01
  2.035610120299E-01  2.109774985736E-01  2.160713392991E-01  2.212881657152E-01
  2.266309471882E-01  2.321027247771E-01  2.377066129641E-01  2.434458014276E-01
  2.493235568572E-01  2.553432248140E-01  2.615082316339E-01  2.678220863785E-01
  2.742883828320E-01  2.809108015471E-01  2.876931119396E-01  2.946391744343E-01
  3.017529426618E-01  3.090384657095E-01  3.164998904256E-01  3.241414637800E-01
  3.319675352815E-01  3.399825594533E-01  3.481910983688E-01  3.565978242478E-01
  3.652075221164E-01  3.740250925304E-01  3.830555543645E-01  3.923040476690E-01
  4.017758365960E-01  4.114763123947E-01  4.214109964812E-01  4.264679284390E-01
  4.315855435802E-01  4.367645701032E-01  4.420057449444E-01  4.473098138838E-01
  4.526775316504E-01  4.581096620302E-01  4.636069779745E-01  4.691702617102E-01
  4.748003048508E-01  4.804979085090E-01  4.862638834111E-01  4.920990500120E-01
  4.980042386121E-01  5.039802894755E-01  5.100280529492E-01  5.161483895846E-01
  5.223421702596E-01  5.286102763027E-01  5.349535996183E-01  5.413730428138E-01
  5.478695193275E-01  5.544439535595E-01  5.610972810022E-01  5.678304483742E-01
  5.746444137547E-01  5.815401467198E-01  5.885186284804E-01  5.955808520222E-01
  6.027278222464E-01  6.099605561134E-01  6.172800827867E-01  6.246874437802E-01
  6.321836931055E-01  6.397698974228E-01  6.474471361919E-01  6.552165018262E-01
  6.630790998481E-01  6.710360490463E-01  6.790884816348E-01  6.872375434144E-01
  6.954843939354E-01  7.038302066626E-01  7.122761691426E-01  7.208234831723E-01
  7.294733649704E-01  7.382270453500E-01  7.470857698942E-01  7.560507991330E-01
  7.651234087225E-01  7.743048896272E-01  7.835965483027E-01  7.929997068824E-01
  8.025157033650E-01  8.121458918053E-01  8.218916425070E-01  8.317543422171E-01
  8.417353943237E-01  8.518362190556E-01  8.620582536842E-01  8.724029527285E-01
  8.828717881612E-01  8.934662496191E-01  9.041878446146E-01  9.150380987499E-01
  9.260185559349E-01  9.371307786062E-01  9.483763479494E-01  9.597568641248E-01
  9.712739464943E-01  9.829292338523E-01  9.947243846585E-01  1.006661077274E+00
  1.018741010202E+00  1.030965902324E+00  1.043337493152E+00  1.055857543070E+00
  1.068527833587E+00  1.081350167590E+00  1.094326369601E+00  1.107458286036E+00
  1.120747785468E+00  1.134196758894E+00  1.147807120001E+00  1.161580805441E+00
  1.175519775106E+00  1.189626012407E+00  1.203901524556E+00  1.218348342851E+00
  1.232968522965E+00  1.247764145241E+00  1.262737314984E+00  1.277890162763E+00
  1.293224844717E+00  1.308743542853E+00  1.324448465367E+00  1.340341846952E+00
  1.356425949115E+00  1.372703060505E+00  1.389175497231E+00  1.405845603197E+00
  1.422715750436E+00  1.439788339441E+00  1.457065799514E+00  1.474550589108E+00
  1.492245196178E+00  1.510152138532E+00  1.528273964194E+00  1.546613251765E+00
  1.565172610786E+00  1.583954682115E+00  1.602962138301E+00  1.622197683960E+00
  1.641664056168E+00  1.661364024842E+00  1.681300393140E+00  1.701475997858E+00
  1.721893709832E+00  1.742556434350E+00  1.763467111562E+00  1.784628716901E+00
  1.806044261504E+00  1.827716792642E+00  1.849649394153E+00  1.871845186883E+00
  1.894307329126E+00  1.917039017075E+00  1.940043485280E+00  1.963324007103E+00
  1.986883895189E+00  2.010726501931E+00  2.034855219954E+00  2.059273482594E+00
  2.083984764385E+00  2.108992581557E+00  2.134300492536E+00  2.159912098446E+00
  2.185831043628E+00  2.212061016151E+00  2.238605748345E+00  2.265469017325E+00
  2.292654645533E+00  2.320166501280E+00  2.348008499295E+00  2.376184601287E+00
  2.404698816502E+00  2.433555202300E+00  2.462757864728E+00  2.492310959104E+00
  2.522218690614E+00  2.552485314901E+00  2.583115138680E+00  2.614112520344E+00
  2.645481870588E+00  2.677227653035E+00  2.709354384872E+00  2.741866637490E+00
  2.774769037140E+00  2.808066265586E+00  2.841763060773E+00  2.875864217502E+00
  2.910374588112E+00  2.945299083169E+00  2.980642672167E+00  3.016410384233E+00
  3.052607308844E+00  3.089238596550E+00  3.126309459709E+00  3.163825173225E+00
  3.201791075304E+00  3.240212568208E+00  3.279095119026E+00  3.318444260454E+00
  3.358265591580E+00  3.398564778679E+00  3.439347556023E+00  3.480619726695E+00
  3.522387163416E+00  3.564655809377E+00  3.607431679089E+00  3.650720859238E+00
  3.694529509549E+00  3.738863863664E+00  3.783730230028E+00  3.829134992788E+00
  3.875084612701E+00  3.921585628054E+00  3.968644655590E+00  4.016268391458E+00
  4.064463612155E+00  4.113237175501E+00  4.162596021607E+00  4.212547173866E+00
  4.263097739953E+00  4.314254912832E+00  4.366025971786E+00  4.418418283447E+00
  4.471439302849E+00  4.525096574483E+00  4.579397733377E+00  4.634350506177E+00
  4.689962712251E+00  4.746242264798E+00  4.803197171976E+00  4.860835538040E+00
  4.919165564496E+00  4.978195551270E+00  5.037933897885E+00  5.098389104660E+00
  5.159569773916E+00  5.221484611203E+00  5.284142426537E+00  5.347552135656E+00
  5.411722761284E+00  5.476663434419E+00  5.542383395632E+00  5.608891996380E+00
  5.676198700336E+00  5.744313084740E+00  5.813244841757E+00  5.883003779858E+00
  5.953599825217E+00  6.025043023119E+00  6.097343539397E+00  6.170511661869E+00
  6.244557801812E+00  6.319492495433E+00  6.395326405379E+00  6.472070322243E+00
  6.549735166110E+00  6.628331988103E+00  6.707871971961E+00  6.788366435624E+00
  6.869826832852E+00  6.952264754846E+00  7.035691931904E+00  7.120120235087E+00
  7.205561677908E+00  7.292028418043E+00  7.379532759059E+00  7.468087152168E+00
  7.557704197994E+00  7.648396648370E+00  7.740177408151E+00  7.833059537048E+00
  7.927056251493E+00  8.022180926511E+00  8.118447097629E+00  8.215868462801E+00
  8.314458884354E+00  8.414232390966E+00  8.515203179658E+00  8.617385617814E+00
  8.720794245228E+00  8.825443776170E+00  8.931349101484E+00  9.038525290702E+00
  9.146987594191E+00  9.256751445321E+00  9.367832462665E+00  9.480246452217E+00
  9.594009409643E+00  9.709137522559E+00  9.825647172830E+00  9.943554938904E+00
  1.006287759817E+01  1.018363212935E+01  1.030583571490E+01  1.042950574348E+01
  1.055465981240E+01  1.068131573015E+01  1.080949151891E+01  1.093920541714E+01
  1.107047588214E+01  1.120332159273E+01  1.133776145184E+01  1.147381458927E+01
  1.161150036434E+01  1.175083836871E+01  1.189184842913E+01  1.203455061028E+01
  1.217896521761E+01  1.232511280022E+01  1.247301415382E+01  1.262269032367E+01
  1.277416260755E+01  1.292745255884E+01  1.308258198955E+01  1.323957297342E+01
  1.339844784910E+01  1.355922922329E+01  1.372193997397E+01  1.388660325366E+01
  1.405324249270E+01  1.422188140261E+01  1.439254397945E+01  1.456525450720E+01
  1.474003756129E+01  1.491691801202E+01  1.509592102817E+01  1.527707208050E+01
  1.546039694547E+01  1.564592170882E+01  1.583367276932E+01  1.602367684255E+01
  1.621596096466E+01  1.641055249624E+01  1.660747912619E+01  1.680676887571E+01
  1.700845010222E+01  1.721255150344E+01  1.741910212148E+01  1.762813134694E+01
  1.783966892311E+01  1.805374495018E+01  1.827038988959E+01  1.848963456826E+01
  1.871151018308E+01  1.893604830528E+01  1.916328088494E+01  1.939324025556E+01
  1.962595913863E+01  1.986147064829E+01  2.009980829607E+01  2.034100599562E+01
  2.058509806757E+01  2.083211924438E+01  2.108210467531E+01  2.133508993142E+01
  2.159111101059E+01  2.185020434272E+01  2.211240679483E+01  2.237775567637E+01
  2.264628874449E+01  2.291804420942E+01  2.319306073993E+01  2.347137746881E+01
  2.375303399844E+01  2.403807040642E+01  2.432652725130E+01  2.461844557831E+01
  2.491386692525E+01  2.521283332836E+01  2.551538732830E+01  2.582157197624E+01
  2.613143083995E+01  2.644500801003E+01  2.676234810615E+01  2.708349628342E+01
  2.740849823883E+01  2.773740021769E+01  2.807024902030E+01  2.840709200855E+01
  2.874797711265E+01  2.909295283800E+01  2.944206827206E+01  2.979537309132E+01
  3.015291756842E+01  3.051475257924E+01  3.088092961019E+01  3.125150076551E+01
  3.162651877470E+01  3.200603700000E+01  3.239010944400E+01  3.277879075732E+01
  3.317213624641E+01  3.357020188137E+01  3.397304430394E+01  3.438072083559E+01
  3.479328948562E+01  3.521080895945E+01  3.563333866696E+01  3.606093873096E+01
  3.649366999573E+01  3.693159403568E+01  3.737477316411E+01  3.782327044208E+01
  3.827714968739E+01  3.873647548363E+01  3.920131318944E+01  3.967172894771E+01
  4.014778969508E+01  4.062956317142E+01  4.111711792948E+01  4.161052334464E+01
  4.210984962477E+01  4.261516782027E+01  4.312654983411E+01  4.364406843212E+01
  4.416779725331E+01
</grid-data>
</grid>
<valence-charge total-charge="16" is-unscreening-charge="yes"
 rescaled-to-z-pseudo="no">
<radfunc>
<data npts="457">
  1.228804776826E-03  1.232374861107E-03  1.246861171967E-03  1.283749171686E-03
  1.361453187584E-03  1.510361850289E-03  1.777024643750E-03  2.188068516753E-03
  2.784826127778E-03  3.660392211543E-03  4.878781781159E-03  6.480752035205E-03
  8.801925436167E-03  1.167493011476E-02  1.565177534016E-02  2.025621996213E-02
  2.633880612051E-02  3.287276647821E-02  4.110736199469E-02  5.148034750529E-02
  6.453944485368E-02  7.737505422536E-02  9.279056230647E-02  1.112935532546E-01
  1.334875394702E-01  1.600887676097E-01  1.919455269740E-01  2.198835445123E-01
  2.518256600620E-01  2.883226811888E-01  3.299956099873E-01  3.775432565568E-01
  4.317503512021E-01  4.934960986034E-01  5.637630847559E-01  6.436464067478E-01
  7.343628450148E-01  8.372598360818E-01  9.133529418775E-01  9.959936910137E-01
  1.085688323643E+00  1.182973614031E+00  1.288417360985E+00  1.402618631992E+00
  1.526207708853E+00  1.659845676173E+00  1.804223587255E+00  1.960061134888E+00
  2.128104747230E+00  2.309125021620E+00  2.503913401927E+00  2.713277998107E+00
  2.938038440257E+00  3.179019654009E+00  3.437044439956E+00  3.712924737336E+00
  4.007451452155E+00  4.321382732670E+00  4.655430581665E+00  5.010245705806E+00
  5.386400518629E+00  5.784370236238E+00  6.204512034669E+00  6.647042276133E+00
  7.112011859129E+00  7.599279805624E+00  8.108485268257E+00  8.371134491801E+00
  8.639018222417E+00  8.912016306474E+00  9.189989202670E+00  9.472777018050E+00
  9.760198550504E+00  1.005205034361E+01  1.034810576022E+01  1.064811408181E+01
  1.095179964108E+01  1.125886099608E+01  1.156897015446E+01  1.188177185724E+01
  1.219688293202E+01  1.251389172606E+01  1.283235763020E+01  1.315181070526E+01
  1.347175142267E+01  1.379165053197E+01  1.411094906770E+01  1.442905850880E+01
  1.474536110362E+01  1.505921037388E+01  1.536993181074E+01  1.567682377601E+01
  1.597915862118E+01  1.627618403667E+01  1.656712464254E+01  1.685118383156E+01
  1.712754587421E+01  1.739537829363E+01  1.765383451760E+01  1.790205681200E+01
  1.813917949894E+01  1.836433245970E+01  1.857664492037E+01  1.877524951515E+01
  1.895928661883E+01  1.912790893681E+01  1.928028633703E+01  1.941561090448E+01
  1.953310219451E+01  1.963201265714E+01  1.971163319986E+01  1.977129885193E+01
  1.981039448866E+01  1.982836056969E+01  1.982469884057E+01  1.979897794328E+01
  1.975083887688E+01  1.968000024642E+01  1.958626323509E+01  1.946951623209E+01
  1.932973904745E+01  1.916700664387E+01  1.898149231602E+01  1.877347024899E+01
  1.854331738984E+01  1.829151457000E+01  1.801864682109E+01  1.772540283304E+01
  1.741257351111E+01  1.708104959743E+01  1.673181833290E+01  1.636595914715E+01
  1.598463837676E+01  1.558910302574E+01  1.518067359681E+01  1.476073603714E+01
  1.433073285726E+01  1.389215349758E+01  1.344652403156E+01  1.299539630907E+01
  1.254033665645E+01  1.208291426169E+01  1.162468938285E+01  1.116720152572E+01
  1.071195774201E+01  1.026042120176E+01  9.814000193433E+00  9.374037701723E+00
  8.941801706370E+00  8.518476335862E+00  8.105153997155E+00  7.702828587285E+00
  7.312389874925E+00  6.934619120177E+00  6.570185979442E+00  6.219646719785E+00
  5.883443744236E+00  5.561906406588E+00  5.255253072076E+00  4.963594359344E+00
  4.686937479952E+00  4.425191574790E+00  4.178173932482E+00  3.945616963671E+00
  3.727175797038E+00  3.522436358211E+00  3.330923791474E+00  3.152111086139E+00
  2.985427774585E+00  2.830268576892E+00  2.686001877437E+00  2.551977931166E+00
  2.427536711131E+00  2.312015323511E+00  2.204754931125E+00  2.105107140634E+00
  2.012439821579E+00  1.926142336296E+00  1.845630168259E+00  1.770348941951E+00
  1.699777829996E+00  1.633432343198E+00  1.570866496923E+00  1.511674343988E+00
  1.455490861280E+00  1.401992176301E+00  1.350895122450E+00  1.301956119573E+00
  1.254969390097E+00  1.209763445832E+00  1.166192987485E+00  1.124129794746E+00
  1.083461562771E+00  1.044093198018E+00  1.005945441508E+00  9.689520523843E-01
  9.330555706143E-01  8.982058599389E-01  8.643598793586E-01  8.314805150665E-01
  7.995357638098E-01  7.684978846778E-01  7.383425938108E-01  7.090483117080E-01
  6.805954767677E-01  6.529659372976E-01  6.261424322566E-01  6.001081686066E-01
  5.748466151031E-01  5.503418572655E-01  5.265792377166E-01  5.035452865701E-01
  4.812273673948E-01  4.596135684401E-01  4.386925292599E-01  4.184532979273E-01
  3.988852039160E-01  3.799777470048E-01  3.617205013399E-01  3.441030337572E-01
  3.271148353613E-01  3.107452655663E-01  2.949835075094E-01  2.798185339706E-01
  2.652390828613E-01  2.512336413734E-01  2.377904379091E-01  2.248974409375E-01
  2.125423639615E-01  2.007126758112E-01  1.893956155238E-01  1.785782111090E-01
  1.682473015449E-01  1.583895613899E-01  1.489915274478E-01  1.400396269604E-01
  1.315202068540E-01  1.234195636054E-01  1.157239733424E-01  1.084197218092E-01
  1.014931339339E-01  9.493060268333E-02  8.871861699521E-02  8.284378858574E-02
  7.729287746657E-02  7.205281603566E-02  6.711073163502E-02  6.245396749336E-02
  5.807010199594E-02  5.394696624491E-02  5.007265989285E-02  4.643556524954E-02
  4.302435967706E-02  3.982802630192E-02  3.683586308435E-02  3.403749029476E-02
  3.142285645598E-02  2.898224281634E-02  2.670626642468E-02  2.458588188203E-02
  2.261238184860E-02  2.077739638604E-02  1.907289121696E-02  1.749116498325E-02
  1.602484558528E-02  1.466688568228E-02  1.341055743340E-02  1.224944655643E-02
  1.117744577924E-02  1.018874775598E-02  9.277837517449E-03  8.439484521580E-03
  7.668734367026E-03  6.960900229200E-03  6.311554074761E-03  5.716517707050E-03
  5.171853691471E-03  4.673856206359E-03  4.219041861499E-03  3.804140523085E-03
  3.426086180713E-03  3.082007888804E-03  2.769220811871E-03  2.485217400094E-03
  2.227658718892E-03  1.994365953516E-03  1.783312107158E-03  1.592613908673E-03
  1.420523943736E-03  1.265423021142E-03  1.125812783921E-03  1.000308573090E-03
  8.876325500861E-04  7.866070823109E-04  6.961483946845E-04  6.152604887142E-04
  5.430293292895E-04  4.786172982301E-04  4.212579125306E-04  3.702508042649E-04
  3.249569582211E-04  2.847942025462E-04  2.492329469660E-04  2.177921625229E-04
  1.900355962294E-04  1.655682135642E-04  1.440328613437E-04  1.251071431738E-04
  1.085004994261E-04  9.395148348028E-05  8.122522583672E-05  7.011107761041E-05
  6.042042488471E-05  5.198466541040E-05  4.465333918940E-05  3.829240457481E-05
  3.278265164717E-05  2.801824478730E-05  2.390538655536E-05  2.036109520029E-05
  1.731208835995E-05  1.469376576724E-05  1.244928404784E-05  1.052871697777E-05
  8.888294860969E-06  7.489716986337E-06  6.299531426342E-06  5.288576744593E-06
  4.431480484062E-06  3.706209609975E-06  3.093668379349E-06  2.577339401397E-06
  2.142963938064E-06  1.778257770547E-06  1.472659224809E-06  1.217106205854E-06
  1.003839336368E-06  8.262285294686E-07  6.786205476672E-07  5.562053101875E-07
  4.548989086592E-07  3.712414767279E-07  3.023082325265E-07  2.456321743786E-07
  1.991370598653E-07  1.610794368263E-07  1.299986223969E-07  1.046736432567E-07
  8.408625738411E-08  6.738927528165E-08  5.387948740359E-08  4.297458492475E-08
  3.419353358446E-08  2.713992567095E-08  2.148789381494E-08  1.697022266123E-08
  1.336834119087E-08  1.050391995991E-08  8.231834268941E-09  6.434286719630E-09
  5.015911164610E-09  3.899705102526E-09  3.023659472164E-09  2.337973891921E-09
  1.802761981631E-09  1.386165774884E-09  1.062810639150E-09  8.125428019221E-10
  6.194007452291E-10  4.707795685125E-10  3.567541014639E-10  2.695322262481E-10
  2.030146777176E-10  1.524416504490E-10  1.141099581357E-10  8.514735660287E-11
  6.333303737495E-11  4.695529477603E-11  3.469902706126E-11  2.555710384662E-11
  1.876076352729E-11  1.372513437200E-11  1.000673477510E-11  7.270429992628E-12
  5.263828514287E-12  3.797511221621E-12  2.729817622283E-12  1.955179936798E-12
  1.395209491456E-12  9.919105761483E-13  7.025327961621E-13  4.956806866210E-13
  3.483844689895E-13  2.439028073336E-13  1.700809278429E-13  1.181284654392E-13
  8.171329138798E-14  5.629228138999E-14  3.861904638739E-14  2.638329737459E-14
  1.794772658299E-14  1.215683176373E-14  8.198594924683E-15  5.504827432026E-15
  3.679680939834E-15  2.448586372305E-15  1.621944000071E-15  1.069418049742E-15
  7.018206865184E-16  4.584028417324E-16  2.979793039042E-16  1.927602339934E-16
  1.240840377203E-16  7.947962062382E-17  5.065368087333E-17  3.211849856632E-17
  2.026104246787E-17  1.271462822733E-17  7.936948177710E-18  4.928148192745E-18
  3.043450905807E-18  1.869273314955E-18  1.141759256488E-18  6.934934683429E-19
  4.188386420987E-19  2.515113471120E-19  1.501565338389E-19  8.912001561383E-20
  5.257970894458E-20  3.083464255068E-20  0.000000000000E+00  0.000000000000E+00
  0.000000000000E+00  0.000000000000E+00  0.000000000000E+00  0.000000000000E+00
  0.000000000000E+00  0.000000000000E+00  0.000000000000E+00  0.000000000000E+00
  0.000000000000E+00  0.000000000000E+00  0.000000000000E+00  0.000000000000E+00
  0.000000000000E+00  0.000000000000E+00  0.000000000000E+00  0.000000000000E+00
  0.000000000000E+00  0.000000000000E+00  0.000000000000E+00  0.000000000000E+00
  0.000000000000E+00  0.000000000000E+00  0.000000000000E+00  0.000000000000E+00
  0.000000000000E+00
</data>
</radfunc>
</valence-charge>
<pseudocore-charge matching-radius="0.812145891805"
 number-of-continuous-derivatives="4">
<annotation model-charge-form="Teter function with specified parameters" />
<radfunc>
<data npts="290">
  9.706526248963E+01  9.705947889864E+01  9.704218966323E+01  9.701334481878E+01
  9.697323962871E+01  9.692050380901E+01  9.685328975962E+01  9.677631978902E+01
  9.668977006941E+01  9.658883237895E+01  9.647504920905E+01  9.635136372976E+01
  9.620186746785E+01  9.604571616333E+01  9.586148966208E+01  9.567748150517E+01
  9.546556649244E+01  9.526466939124E+01  9.503879456414E+01  9.478490406650E+01
  9.449960862330E+01  9.424623699331E+01  9.396823004124E+01  9.366327324020E+01
  9.332885155895E+01  9.296223570886E+01  9.256046826312E+01  9.223415931262E+01
  9.188483981335E+01  9.151098254306E+01  9.111097358807E+01  9.068310975377E+01
  9.022559631540E+01  8.973654520286E+01  8.921397372786E+01  8.865580397741E+01
  8.805986301590E+01  8.742388405675E+01  8.697649381813E+01  8.650954193892E+01
  8.602229104350E+01  8.551398783362E+01  8.498386406367E+01  8.443113770165E+01
  8.385501429361E+01  8.325468855009E+01  8.262934617438E+01  8.197816595323E+01
  8.130032213141E+01  8.059498709267E+01  7.986133436999E+01  7.909854200885E+01
  7.830579630733E+01  7.748229595732E+01  7.662725661059E+01  7.573991589343E+01
  7.481953889216E+01  7.386542413097E+01  7.287691006130E+01  7.185338207966E+01
  7.079428008732E+01  6.969910660152E+01  6.856743542257E+01  6.739892085546E+01
  6.619330747726E+01  6.495044043324E+01  6.367027623493E+01  6.301622732719E+01
  6.235289402189E+01  6.168030728771E+01  6.099850723653E+01  6.030754350613E+01
  5.960747564628E+01  5.889837350754E+01  5.818031763181E+01  5.745339964367E+01
  5.671772264149E+01  5.597340158713E+01  5.522056369303E+01  5.445934880527E+01
  5.368990978142E+01  5.291241286133E+01  5.212703802951E+01  5.133397936728E+01
  5.053344539283E+01  4.972565938730E+01  4.891085970486E+01  4.808930006461E+01
  4.726124982209E+01  4.642699421798E+01  4.558683460168E+01  4.474108862700E+01
  4.389009041760E+01  4.303419069916E+01  4.217375689572E+01  4.130917318703E+01
  4.044084052432E+01  3.956917660105E+01  3.869461577598E+01  3.781760894516E+01
  3.693862336001E+01  3.605814238813E+01  3.517666521399E+01  3.429470647631E+01
  3.341279583922E+01  3.253147749428E+01  3.165130959068E+01  3.077286359079E+01
  2.989672354881E+01  2.902348531019E+01  2.815375562977E+01  2.728815120699E+01
  2.642729763663E+01  2.557182827418E+01  2.472238301509E+01  2.387960698764E+01
  2.304414915976E+01  2.221666086062E+01  2.139779421821E+01  2.058820051507E+01
  1.978852846466E+01  1.899942241185E+01  1.822152046150E+01  1.745545254003E+01
  1.670183839580E+01  1.596128554460E+01  1.523438716785E+01  1.452171997180E+01
  1.382384201682E+01  1.314129052706E+01  1.247457969144E+01  1.182419846795E+01
  1.119060840408E+01  1.057424148701E+01  9.975498038095E+00  9.394744666799E+00
  8.832312299941E+00  8.288494302698E+00  7.763544708252E+00  7.257676573309E+00
  6.771060476926E+00  6.303823180118E+00  5.856046463588E+00  5.427766160589E+00
  5.018971401429E+00  4.629604085342E+00  4.259558594508E+00  3.908681763754E+00
  3.576773117997E+00  3.263585387784E+00  2.968825311251E+00  2.692154728605E+00
  2.433191972746E+00  2.191513556825E+00  1.966656156736E+00  1.758118883180E+00
  1.565365834752E+00  1.387828919963E+00  1.224910932544E+00  1.075988860765E+00
  9.404174078572E-01  8.175326970871E-01  7.066561315753E-01  6.070983756990E-01
  5.181634219454E-01  4.391527044228E-01  3.693692180063E-01  3.081216003458E-01
  2.547281327732E-01  2.085206155861E-01  1.688480733088E-01  1.350802463975E-01
  1.066108274968E-01  8.286040280844E-02  6.327906239227E-02  4.734864729565E-02
  3.458460625470E-02  2.453744029148E-02  1.679371976514E-02  1.097666522895E-02
  6.746290679126E-03  3.799115314428E-03  1.867457595870E-03  7.183330260640E-04
  1.519844649638E-04  8.076322957568E-08  1.236258223700E-04  4.106256824889E-04
  7.735657046160E-04  1.146753184366E-03  1.483582662287E-03  1.753781672776E-03
  1.940693628011E-03  2.038651943456E-03  2.050495407223E-03  1.985269262849E-03
  1.856149656862E-03  1.678621198163E-03  1.468928636830E-03  1.242814392427E-03
  1.014544178750E-03  7.962136394205E-04  5.973200916850E-04  4.245755312184E-04
  2.819303096994E-04  1.707716466504E-04  9.025760303587E-05  3.774547496879E-05
  9.273820483021E-06  5.947165164040E-08  4.974768309997E-06  1.897564010242E-05
  3.745773366085E-05  5.652513186375E-05  7.316389207164E-05  8.532016628212E-05
  9.188959194521E-05  9.263053121174E-05  8.801823369333E-05  7.905984833938E-05
  6.709128095965E-05  5.357618846894E-05  3.992506173410E-05  2.734864962012E-05
  1.675530176889E-05  8.696620251985E-06  3.360612561316E-06  6.068247417778E-07
  3.414250879350E-08  1.069418444771E-06  3.064017008252E-06  5.385808810922E-06
  7.495968115597E-06  9.002855606301E-06  9.688901815343E-06  9.510268418928E-06
  8.572659973209E-06  7.089537134033E-06  5.330797379511E-06  3.570545377877E-06
  2.041856413166E-06  9.046094793479E-07  2.298579717611E-07  1.252623479621E-09
  0.000000000000E+00  0.000000000000E+00  0.000000000000E+00  0.000000000000E+00
  0.000000000000E+00  0.000000000000E+00  0.000000000000E+00  0.000000000000E+00
  0.000000000000E+00  0.000000000000E+00  0.000000000000E+00  0.000000000000E+00
  0.000000000000E+00  0.000000000000E+00  0.000000000000E+00  0.000000000000E+00
  0.000000000000E+00  0.000000000000E+00  0.000000000000E+00  0.000000000000E+00
  0.000000000000E+00  0.000000000000E+00  0.000000000000E+00  0.000000000000E+00
  0.000000000000E+00  0.000000000000E+00  0.000000000000E+00  0.000000000000E+00
  0.000000000000E+00  0.000000000000E+00  0.000000000000E+00  0.000000000000E+00
  0.000000000000E+00  0.000000000000E+00  0.000000000000E+00  0.000000000000E+00
  0.000000000000E+00  0.000000000000E+00  0.000000000000E+00  0.000000000000E+00
  0.000000000000E+00  0.000000000000E+00  0.000000000000E+00  0.000000000000E+00
  0.000000000000E+00  0.000000000000E+00
</data>
</radfunc>
</pseudocore-charge>
<semilocal-potentials set="scalar_relativistic">
<slps n="5" l="s" rc="2.26546901733" eref="-0.564381962798">
<radfunc>
<data npts="290">
  6.097262405280E+01  6.092544732397E+01  6.078475348349E+01  6.055113631620E+01
  6.022861128280E+01  5.980851651635E+01  5.927957660149E+01  5.868261740665E+01
  5.802226768715E+01  5.726634610657E+01  5.643202282154E+01  5.554578774839E+01
  5.450233184716E+01  5.344351525004E+01  5.223333259741E+01  5.106472702416E+01
  4.976603238090E+01  4.857902821810E+01  4.729297306406E+01  4.590522965630E+01
  4.441427837681E+01  4.314703056313E+01  4.181417873648E+01  4.041700764826E+01
  3.895753483374E+01  3.743854478439E+01  3.586360659695E+01  3.464827615643E+01
  3.340602587017E+01  3.213920529380E+01  3.085038087947E+01  2.954231785948E+01
  2.821795832465E+01  2.688039580930E+01  2.553284681269E+01  2.417861979445E+01
  2.282108227404E+01  2.146362673614E+01  2.056037392879E+01  1.965965489156E+01
  1.876244946512E+01  1.786972015251E+01  1.698240803530E+01  1.610142890919E+01
  1.522766967420E+01  1.436198501130E+01  1.350519437269E+01  1.265807930897E+01
  1.182138115149E+01  1.099579906341E+01  1.018198846834E+01  9.380559860741E+00
  8.592077997387E+00  7.817061465387E+00  7.055982617766E+00  6.309267864204E+00
  5.577298301102E+00  4.860410662283E+00  4.158898569133E+00  3.473014056913E+00
  2.802969352298E+00  2.148938875887E+00  1.511061442501E+00  8.894426314117E-01
  2.841572982831E-01 -3.047477995546E-01 -8.772512928852E-01 -1.157352021831E+00
 -1.433354433688E+00 -1.705261760788E+00 -1.973078299588E+00 -2.236809323694E+00
 -2.496460997530E+00 -2.752040290855E+00 -3.003554894339E+00 -3.251013136433E+00
 -3.494423901715E+00 -3.733796550968E+00 -3.969140843170E+00 -4.200466859632E+00
 -4.427784930510E+00 -4.651105563886E+00 -4.870439377667E+00 -5.085797034507E+00
 -5.297189179992E+00 -5.504626384301E+00 -5.708119087587E+00 -5.907677549295E+00
 -6.103311801662E+00 -6.295031607630E+00 -6.482846423392E+00 -6.666765365829E+00
 -6.846797185049E+00 -7.022950242274E+00 -7.195232493288E+00 -7.363651477684E+00
 -7.528214314110E+00 -7.688927701738E+00 -7.845797928133E+00 -7.998830883730E+00
 -8.148032083058E+00 -8.293406692894E+00 -8.434959567440E+00 -8.572695290656E+00
 -8.706618225803E+00 -8.836732572245E+00 -8.963042429514E+00 -9.085551868609E+00
 -9.204265010427E+00 -9.319186111234E+00 -9.430319654950E+00 -9.537670452047E+00
 -9.641243744731E+00 -9.741045318060E+00 -9.837081616550E+00 -9.929359865773E+00
 -1.001788819836E+01 -1.010267578373E+01 -1.018373296087E+01 -1.026107137326E+01
 -1.033470410510E+01 -1.040464581787E+01 -1.047091288612E+01 -1.053352353140E+01
 -1.059249795306E+01 -1.064785845474E+01 -1.069962956513E+01 -1.074783815154E+01
 -1.079251352506E+01 -1.083368753544E+01 -1.087139465456E+01 -1.090567204656E+01
 -1.093655962327E+01 -1.096410008331E+01 -1.098833893315E+01 -1.100932448876E+01
 -1.102710785610E+01 -1.104174288912E+01 -1.105328612374E+01 -1.106179668646E+01
 -1.106733617648E+01 -1.106996851995E+01 -1.106975979560E+01 -1.106677803092E+01
 -1.106109296821E+01 -1.105277580030E+01 -1.104189887595E+01 -1.102853537534E+01
 -1.101275895642E+01 -1.099464337363E+01 -1.097426207088E+01 -1.095168775158E+01
 -1.092699192913E+01 -1.090024446239E+01 -1.087151308139E+01 -1.084086290967E+01