<?xml version="1.0" encoding="UTF-8" ?>
<psml version="1.1" energy_unit="hartree" length_unit="bohr"
 uuid="71ef1b80-23d2-11e8-4017-1fe3afef0f2a"
 xmlns="http://esl.cecam.org/PSML/ns/1.1">
<provenance creator="ONCVPSP-3.3.0+psml-3.3.0-73 (scalar-relativistic)"
 date="2018-03-09">
<annotation action="semilocal-pseudopotential-generation"
 action-cont="projectors-generation" />
<input-file name="oncvpsp-input">
<![CDATA[# atsym z nc nv iexc psfile
Ti 22 3 4 -001012 upf
# n l f
1 0 2.0
2 0 2.0
2 1 6.0
3 0 2.0
3 1 6.0
3 2 2.0
4 0 2.0
# lmax
2
# l rc ep ncon nbas qcut
0 1.35 0.0 4 8 8.6
1 1.3 0.0 4 8 8.6
2 1.65 0.0 4 8 9.0
# lloc lpopt rc5 dvloc0
4 5 1.3 0.0
# l nproj debl
0 2 1.0
1 2 2.0
2 2 1.5
# icmod fcfact rcfact
3 2.5 1.4
# epsh1 epsh2 depsh
-12.0 12.0 0.02
# rlmax drl
6.0 0.01
 0
]]>
</input-file>
</provenance>
<pseudo-atom-spec atomic-label="Ti" atomic-number="22" z-pseudo="12"
 flavor="Hamann&apos;s oncvpsp" relativity="scalar" spin-dft="no"
 core-corrections="yes">
<annotation pseudo-energy="-58.0923020152" />
<exchange-correlation>
<annotation oncvpsp-xc-code="-1012" oncvpsp-xc-type="libxc-interface" />
<libxc-info number-of-functionals="2">
<functional name="Slater exchange (LDA)" type="exchange" id="1" />
<functional name="Perdew &amp; Wang (LDA)" type="correlation" id="12" />
</libxc-info>
</exchange-correlation>
<valence-configuration total-valence-charge="12">
<shell n="3" l="s" occupation="2" />
<shell n="3" l="p" occupation="6" />
<shell n="3" l="d" occupation="2" />
<shell n="4" l="s" occupation="2" />
</valence-configuration>
</pseudo-atom-spec>
<grid npts="457">
<annotation type="sampled from oncvpsp log grid"
 recipe="r(i:1..N) = r1*exp(a*(i-1)) + r=0; resampled"
 recipe-cont="r1: scale; a: step" scale="0.227272727273E-04"
 step="0.119285708653E-01" delta="0.500000000000E-02" rmax="44.2272058873" />
<grid-data>
  0.000000000000E+00  5.050326870634E-03  1.008763158867E-02  1.513305596120E-02
  2.014925244947E-02  2.527485517356E-02  3.058981678310E-02  3.572099424244E-02
  4.072950911740E-02  4.588960304035E-02  5.109035418629E-02  5.620604328253E-02
  6.183396752268E-02  6.721879163176E-02  7.307255428460E-02  7.849416313563E-02
  8.431802756430E-02  8.949999295644E-02  9.500042838519E-02  1.008389061859E-01
  1.070362015583E-01  1.122671605650E-01  1.177537614174E-01  1.235084975710E-01
  1.295444730481E-01  1.358754322768E-01  1.425157913881E-01  1.477081729672E-01
  1.530897323645E-01  1.586673620330E-01  1.644482055438E-01  1.704396667347E-01
  1.766494191929E-01  1.830854160832E-01  1.897559003335E-01  1.966694151926E-01
  2.038348151717E-01  2.112612773846E-01  2.163619696658E-01  2.215858130614E-01
  2.269357809319E-01  2.324149184268E-01  2.380263442172E-01  2.437732522720E-01
  2.496589136749E-01  2.556866784866E-01  2.618599776520E-01  2.681823249525E-01
  2.746573190061E-01  2.812886453162E-01  2.880800783687E-01  2.950354837808E-01
  3.021588205013E-01  3.094541430634E-01  3.169256038936E-01  3.245774556740E-01
  3.324140537638E-01  3.404398586778E-01  3.486594386257E-01  3.570774721119E-01
  3.656987505986E-01  3.745281812330E-01  3.835707896407E-01  3.928317227858E-01
  4.023162519008E-01  4.120297754867E-01  4.219778223860E-01  4.270415562546E-01
  4.321660549297E-01  4.373520475889E-01  4.426002721599E-01  4.479114754258E-01
  4.532864131309E-01  4.587258500885E-01  4.642305602896E-01  4.698013270131E-01
  4.754389429372E-01  4.811442102525E-01  4.869179407755E-01  4.927609560648E-01
  4.986740875376E-01  5.046581765880E-01  5.107140747071E-01  5.168426436036E-01
  5.230447553268E-01  5.293212923907E-01  5.356731478994E-01  5.421012256742E-01
  5.486064403823E-01  5.551897176669E-01  5.618519942789E-01  5.685942182102E-01
  5.754173488288E-01  5.823223570147E-01  5.893102252989E-01  5.963819480025E-01
  6.035385313785E-01  6.107809937550E-01  6.181103656801E-01  6.255276900683E-01
  6.330340223491E-01  6.406304306173E-01  6.483179957847E-01  6.560978117341E-01
  6.639709854749E-01  6.719386373006E-01  6.800019009482E-01  6.881619237596E-01
  6.964198668447E-01  7.047769052468E-01  7.132342281098E-01  7.217930388471E-01
  7.304545553133E-01  7.392200099770E-01  7.480906500968E-01  7.570677378979E-01
  7.661525507527E-01  7.753463813617E-01  7.846505379381E-01  7.940663443933E-01
  8.035951405261E-01  8.132382822124E-01  8.229971415989E-01  8.328731072981E-01
  8.428675845857E-01  8.529819956007E-01  8.632177795479E-01  8.735763929025E-01
  8.840593096173E-01  8.946680213327E-01  9.054040375887E-01  9.162688860398E-01
  9.272641126723E-01  9.383912820243E-01  9.496519774086E-01  9.610478011375E-01
  9.725803747512E-01  9.842513392482E-01  9.960623553192E-01  1.008015103583E+00
  1.020111284826E+00  1.032352620244E+00  1.044740851687E+00  1.057277741907E+00
  1.069965074810E+00  1.082804655708E+00  1.095798311576E+00  1.108947891315E+00
  1.122255266011E+00  1.135722329203E+00  1.149350997153E+00  1.163143209119E+00
  1.177100927629E+00  1.191226138760E+00  1.205520852425E+00  1.219987102654E+00
  1.234626947886E+00  1.249442471261E+00  1.264435780916E+00  1.279609010287E+00
  1.294964318411E+00  1.310503890231E+00  1.326229936914E+00  1.342144696157E+00
  1.358250432511E+00  1.374549437701E+00  1.391044030954E+00  1.407736559325E+00
  1.424629398037E+00  1.441724950813E+00  1.459025650223E+00  1.476533958026E+00
  1.494252365522E+00  1.512183393908E+00  1.530329594635E+00  1.548693549771E+00
  1.567277872368E+00  1.586085206837E+00  1.605118229319E+00  1.624379648071E+00
  1.643872203847E+00  1.663598670294E+00  1.683561854337E+00  1.703764596589E+00
  1.724209771748E+00  1.744900289009E+00  1.765839092477E+00  1.787029161587E+00
  1.808473511526E+00  1.830175193664E+00  1.852137295988E+00  1.874362943540E+00
  1.896855298863E+00  1.919617562449E+00  1.942652973198E+00  1.965964808877E+00
  1.989556386583E+00  2.013431063222E+00  2.037592235981E+00  2.062043342813E+00
  2.086787862926E+00  2.111829317282E+00  2.137171269089E+00  2.162817324318E+00
  2.188771132210E+00  2.215036385796E+00  2.241616822426E+00  2.268516224295E+00
  2.295738418987E+00  2.323287280014E+00  2.351166727375E+00  2.379380728103E+00
  2.407933296840E+00  2.436828496402E+00  2.466070438359E+00  2.495663283620E+00
  2.525611243023E+00  2.555918577939E+00  2.586589600875E+00  2.617628676085E+00
  2.649040220198E+00  2.680828702840E+00  2.712998647275E+00  2.745554631042E+00
  2.778501286614E+00  2.811843302054E+00  2.845585421678E+00  2.879732446738E+00
  2.914289236099E+00  2.949260706933E+00  2.984651835416E+00  3.020467657441E+00
  3.056713269330E+00  3.093393828562E+00  3.130514554505E+00  3.168080729159E+00
  3.206097697909E+00  3.244570870284E+00  3.283505720727E+00  3.322907789376E+00
  3.362782682848E+00  3.403136075042E+00  3.443973707943E+00  3.485301392438E+00
  3.527125009147E+00  3.569450509257E+00  3.612283915368E+00  3.655631322353E+00
  3.699498898221E+00  3.743892885000E+00  3.788819599620E+00  3.834285434815E+00
  3.880296860033E+00  3.926860422353E+00  3.973982747421E+00  4.021670540391E+00
  4.069930586875E+00  4.118769753918E+00  4.168194990965E+00  4.218213330856E+00
  4.268831890827E+00  4.320057873516E+00  4.371898567999E+00  4.424361350815E+00
  4.477453687024E+00  4.531183131269E+00  4.585557328844E+00  4.640584016790E+00
  4.696271024992E+00  4.752626277291E+00  4.809657792619E+00  4.867373686130E+00
  4.925782170364E+00  4.984891556408E+00  5.044710255085E+00  5.105246778146E+00
  5.166509739484E+00  5.228507856358E+00  5.291249950634E+00  5.354744950042E+00
  5.419001889442E+00  5.484029912116E+00  5.549838271061E+00  5.616436330314E+00
  5.683833566277E+00  5.752039569073E+00  5.821064043902E+00  5.890916812428E+00
  5.961607814178E+00  6.033147107948E+00  6.105544873243E+00  6.178811411722E+00
  6.252957148663E+00  6.327992634447E+00  6.403928546060E+00  6.480775688613E+00
  6.558544996876E+00  6.637247536839E+00  6.716894507281E+00  6.797497241368E+00
  6.879067208264E+00  6.961616014764E+00  7.045155406941E+00  7.129697271824E+00
  7.215253639086E+00  7.301836682755E+00  7.389458722948E+00  7.478132227623E+00
  7.567869814355E+00  7.658684252127E+00  7.750588463153E+00  7.843595524710E+00
  7.937718671007E+00  8.032971295059E+00  8.129366950600E+00  8.226919354007E+00
  8.325642386255E+00  8.425550094890E+00  8.526656696029E+00  8.628976576381E+00
  8.732524295298E+00  8.837314586841E+00  8.943362361883E+00  9.050682710226E+00
  9.159290902749E+00  9.269202393582E+00  9.380432822305E+00  9.492998016172E+00
  9.606913992366E+00  9.722196960275E+00  9.838863323798E+00  9.956929683684E+00
  1.007641283989E+01  1.019732979397E+01  1.031969775149E+01  1.044353412451E+01
  1.056885653401E+01  1.069568281241E+01  1.082403100616E+01  1.095391937824E+01
  1.108536641078E+01  1.121839080771E+01  1.135301149740E+01  1.148924763537E+01
  1.162711860699E+01  1.176664403027E+01  1.190784375864E+01  1.205073788374E+01
  1.219534673835E+01  1.234169089921E+01  1.248979119000E+01  1.263966868428E+01
  1.279134470849E+01  1.294484084499E+01  1.310017893513E+01  1.325738108235E+01
  1.341646965534E+01  1.357746729120E+01  1.374039689870E+01  1.390528166148E+01
  1.407214504142E+01  1.424101078192E+01  1.441190291130E+01  1.458484574624E+01
  1.475986389519E+01  1.493698226193E+01  1.511622604908E+01  1.529762076167E+01
  1.548119221081E+01  1.566696651734E+01  1.585497011554E+01  1.604522975693E+01
  1.623777251401E+01  1.643262578418E+01  1.662981729359E+01  1.682937510111E+01
  1.703132760233E+01  1.723570353356E+01  1.744253197596E+01  1.765184235967E+01
  1.786366446799E+01  1.807802844160E+01  1.829496478290E+01  1.851450436030E+01
  1.873667841262E+01  1.896151855357E+01  1.918905677621E+01  1.941932545753E+01
  1.965235736302E+01  1.988818565138E+01  2.012684387919E+01  2.036836600574E+01
  2.061278639781E+01  2.086013983458E+01  2.111046151260E+01  2.136378705075E+01
  2.162015249536E+01  2.187959432530E+01  2.214214945721E+01  2.240785525069E+01
  2.267674951370E+01  2.294887050787E+01  2.322425695396E+01  2.350294803741E+01
  2.378498341386E+01  2.407040321482E+01  2.435924805340E+01  2.465155903004E+01
  2.494737773840E+01  2.524674627126E+01  2.554970722652E+01  2.585630371324E+01
  2.616657935780E+01  2.648057831009E+01  2.679834524981E+01  2.711992539281E+01
  2.744536449752E+01  2.777470887149E+01  2.810800537795E+01  2.844530144249E+01
  2.878664505980E+01  2.913208480051E+01  2.948166981812E+01  2.983544985594E+01
  3.019347525421E+01  3.055579695726E+01  3.092246652075E+01  3.129353611899E+01
  3.166905855242E+01  3.204908725505E+01  3.243367630211E+01  3.282288041774E+01
  3.321675498275E+01  3.361535604254E+01  3.401874031505E+01  3.442696519883E+01
  3.484008878122E+01  3.525816984660E+01  3.568126788475E+01  3.610944309937E+01
  3.654275641656E+01  3.698126949356E+01  3.742504472749E+01  3.787414526422E+01
  3.832863500739E+01  3.878857862747E+01  3.925404157100E+01  3.972509006986E+01
  4.020179115069E+01  4.068421264450E+01  4.117242319624E+01  4.166649227459E+01
  4.216649018189E+01  4.267248806407E+01  4.318455792084E+01  4.370277261589E+01
  4.422720588728E+01
</grid-data>
</grid>
<valence-charge total-charge="12" is-unscreening-charge="yes"
 rescaled-to-z-pseudo="no">
<radfunc>
<data npts="457">
  1.993418386851E+00  1.995677896401E+00  2.002431858228E+00  2.013698237230E+00
  2.029359150040E+00  2.049945900642E+00  2.076174082242E+00  2.106194711181E+00
  2.139933202751E+00  2.179255512179E+00  2.223549856911E+00  2.271660221630E+00
  2.329756093790E+00  2.390374561016E+00  2.461807890433E+00  2.533065266464E+00
  2.615015879247E+00  2.692592594221E+00  2.779682146101E+00  2.877405155200E+00
  2.987001615417E+00  3.084142747922E+00  3.190519590404E+00  3.306954471401E+00
  3.434330797152E+00  3.573594793831E+00  3.725756539131E+00  3.848985697983E+00
  3.980549043695E+00  4.120942230276E+00  4.270679251541E+00  4.430291080129E+00
  4.600323817059E+00  4.781336263858E+00  4.973896817111E+00  5.178579571861E+00
  5.395959505804E+00  5.626606600709E+00  5.788018218342E+00  5.955735329541E+00
  6.129913214543E+00  6.310700384100E+00  6.498236974301E+00  6.692652963851E+00
  6.894066200175E+00  7.102580220466E+00  7.318281853621E+00  7.541238589111E+00
  7.771495699170E+00  8.009073101361E+00  8.253961949662E+00  8.506120943777E+00
  8.765472348569E+00  9.031897718319E+00  9.305233324263E+00  9.585265288435E+00
  9.871724432638E+00  1.016428085832E+01  1.046253828157E+01  1.076602815745E+01
  1.107420363954E+01  1.138643343426E+01  1.170199562500E+01  1.202007155888E+01
  1.233973990839E+01  1.265997104230E+01  1.297962186317E+01  1.313884028516E+01
  1.329743129451E+01  1.345521822212E+01  1.361201662615E+01  1.376763424161E+01
  1.392187095310E+01  1.407451879328E+01  1.422536196913E+01  1.437417691867E+01
  1.452073240044E+01  1.466478961855E+01  1.480610238559E+01  1.494441732629E+01
  1.507947412436E+01  1.521100581517E+01  1.533873912687E+01  1.546239487230E+01
  1.558168839420E+01  1.569633006587E+01  1.580602584937E+01  1.591047791318E+01
  1.600938531081E+01  1.610244472179E+01  1.618935125601E+01  1.626979932193E+01
  1.634348355896E+01  1.641009983365E+01  1.646934629879E+01  1.652092451422E+01
  1.656454062715E+01  1.659990660947E+01  1.662674154855E+01  1.664477298764E+01
  1.665373831080E+01  1.665338616692E+01  1.664347792621E+01  1.662378916218E+01
  1.659411115082E+01  1.655425237835E+01  1.650404004785E+01  1.644332157464E+01
  1.637196605926E+01  1.628986572666E+01  1.619693731953E+01  1.609312343318E+01
  1.597839377932E+01  1.585274636570E+01  1.571620857856E+01  1.556883815502E+01
  1.541072403261E+01  1.524198706371E+01  1.506278058309E+01  1.487329081758E+01
  1.467373712762E+01  1.446437207152E+01  1.424548128459E+01  1.401738316628E+01
  1.378042837006E+01  1.353499909223E+01  1.328150815749E+01  1.302039790030E+01
  1.275213884342E+01  1.247722817574E+01  1.219618803398E+01  1.190956359362E+01
  1.161792097653E+01  1.132184498377E+01  1.102193666350E+01  1.071881072536E+01
  1.041309281350E+01  1.010541665195E+01  9.796421076810E+00  9.486746971059E+00
  9.177034118638E+00  8.867917995817E+00  8.560026518948E+00  8.253976769092E+00
  7.950371715448E+00  7.649796961104E+00  7.352817536328E+00  7.059974766420E+00
  6.771783242963E+00  6.488727929131E+00  6.211261431359E+00  5.939801471083E+00
  5.674728591285E+00  5.416384133043E+00  5.165068517049E+00  4.921039864015E+00
  4.684512985826E+00  4.455658776195E+00  4.234604025332E+00  4.021431677733E+00
  3.816181545729E+00  3.618851483918E+00  3.429399721697E+00  3.247750524423E+00
  3.073801744771E+00  2.907428353164E+00  2.748485077409E+00  2.596811286117E+00
  2.452232794704E+00  2.314563786795E+00  2.183608667372E+00  2.059163883178E+00
  1.941019687401E+00  1.828961839383E+00  1.722773227142E+00  1.622235400108E+00
  1.527129998858E+00  1.437240068241E+00  1.352351240107E+00  1.272252772212E+00
  1.196738430687E+00  1.125607205063E+00  1.058663578308E+00  9.957165598098E-01
  9.365779919164E-01  8.810630528821E-01  8.289906797830E-01  7.801839594226E-01
  7.344704718415E-01  6.916825881755E-01  6.516577247263E-01  6.142385552245E-01
  5.792731833464E-01  5.466152776211E-01  5.161241709138E-01  4.876649267115E-01
  4.611083744519E-01  4.363311161484E-01  4.132155065498E-01  3.916496090548E-01
  3.715271295667E-01  3.527473304291E-01  3.352149265255E-01  3.188399655671E-01
  3.035376945126E-01  2.892284139924E-01  2.758373225171E-01  2.632943521649E-01
  2.515339973439E-01  2.404951381306E-01  2.301208595857E-01  2.203582683474E-01
  2.111583077026E-01  2.024755722368E-01  1.942681230650E-01  1.864973045493E-01
  1.791275633171E-01  1.721262703032E-01  1.654635464510E-01  1.591120926300E-01
  1.530470242443E-01  1.472457109375E-01  1.416876217280E-01  1.363541758463E-01
  1.312285994872E-01  1.262957886330E-01  1.215421780578E-01  1.169556165723E-01
  1.125252485347E-01  1.082414016076E-01  1.040954807163E-01  1.000798681285E-01
  9.618782955178E-02  9.241342612526E-02  8.875143215677E-02  8.519725844643E-02
  8.174688101965E-02  7.839677508285E-02  7.514385400574E-02  7.198541312689E-02
  6.891907817414E-02  6.594275808801E-02  6.305460203403E-02  6.025296038983E-02
  5.753634949304E-02  5.490341993807E-02  5.235292821264E-02  4.988371146832E-02
  4.749466522394E-02  4.518472380554E-02  4.295284333214E-02  4.079798706264E-02
  3.871911292533E-02  3.671516305840E-02  3.478505519648E-02  3.292767574548E-02
  3.114187439494E-02  2.942646012450E-02  2.778019846826E-02  2.620180990784E-02
  2.468996927234E-02  2.324330603023E-02  2.186040536510E-02  2.053980993415E-02
  1.928002221443E-02  1.807950734989E-02  1.693669641437E-02  1.584999001775E-02
  1.481776218308E-02  1.383836443080E-02  1.291013001037E-02  1.203137822548E-02
  1.120041880356E-02  1.041555626486E-02  9.675094251390E-03  8.977339779591E-03
  8.320607385194E-03  7.703223132222E-03  7.123528461887E-03  6.579883860470E-03
  6.070672328552E-03  5.594302636981E-03  5.149212357802E-03  4.733870661089E-03
  4.346780871052E-03  3.986482777180E-03  3.651554698267E-03  3.340615299228E-03
  3.052325162363E-03  2.785388116483E-03  2.538552328751E-03  2.310611165524E-03
  2.100403829670E-03  1.906815782932E-03  1.728778962850E-03  1.565271804563E-03
  1.415319078499E-03  1.277991555511E-03  1.152405511441E-03  1.037722083443E-03
  9.331464905574E-04  8.379271311724E-04  7.513545699878E-04  6.727604270044E-04
  6.015161808958E-04  5.370318988499E-04  4.787549046415E-04  4.261683962971E-04
  3.787900242557E-04  3.361704404238E-04  2.978918279683E-04  2.635664211028E-04
  2.328350235054E-04  2.053655333654E-04  1.808514824006E-04  1.590105955246E-04
  1.395833771745E-04  1.223317296519E-04  1.070376081721E-04  9.350171668379E-05
  8.154224789818E-05  7.099367037427E-05  6.170556493726E-05  5.354151216907E-05
  4.637803220418E-05  4.010357759328E-05  3.461757956186E-05  2.982954759331E-05
  2.565822190580E-05  2.203077806957E-05  1.888208272607E-05  1.615399912165E-05
  1.379474095547E-05  1.175827286207E-05  1.000375570285E-05  8.495034724825E-06
  7.200168557907E-06  6.090996961807E-06  5.142745197395E-06  4.333662883562E-06
  3.644695206583E-06  3.059184372514E-06  2.562599232089E-06  2.142291059716E-06
  1.787273531471E-06  1.488025019450E-06  1.236311399708E-06  1.025027656455E-06
  8.480566547436E-07  7.001435460865E-07  5.767843649713E-07  4.741274680400E-07
  3.888865606888E-07  3.182641472241E-07  2.598843297220E-07  2.117339667908E-07
  1.721112860478E-07  1.395811229004E-07  1.129360329067E-07  9.116259537196E-08
  7.341229181557E-08  5.897640447233E-08  4.726443708134E-08  3.778561294687E-08
  3.013305372795E-08  2.397028677935E-08  1.901976929715E-08  1.505315421280E-08
  1.188305594013E-08  9.356103929360E-09  7.347098746763E-09  5.754109317131E-09
  4.494371072106E-09  3.500864829838E-09  2.719467210144E-09  2.042550190676E-09
  1.577965879051E-09  1.215582699240E-09  9.337263647081E-10  7.151364400674E-10
  5.461074771801E-10  4.157888161659E-10  3.156154627459E-10  2.388469130162E-10
  1.801945989104E-10  1.355218577750E-10  1.016030640372E-10  7.593086775920E-11
  5.656242399035E-11  4.199712106702E-11  3.107967168877E-11  2.292355807395E-11
  1.685075683639E-11  1.234444072407E-11  9.011989100696E-12  6.556159376500E-12
  4.752696571482E-12  3.433004018205E-12  2.470778583013E-12  1.771740244865E-12
  1.265768099118E-12  9.009009343209E-13  6.387771869101E-13  4.511818801724E-13
  3.174416917180E-13  2.224673388354E-13  1.552881065216E-13  1.079590789322E-13
  7.474950637695E-14  5.154238935755E-14  3.539210857484E-14  2.419983161261E-14
  1.647632464234E-14  1.116935842518E-14  7.538649134390E-15  5.065630365324E-15
  3.388637329543E-15  2.256550178618E-15  1.495786486122E-15  9.869042647656E-16
  6.480926098740E-16  4.235759098664E-16  2.755070982100E-16  1.783267952666E-16
  1.148569551136E-16  7.360870461029E-17  4.693601578134E-17  2.977570888885E-17
  1.879187838678E-17  1.179786713275E-17  7.367747525357E-18  4.576529521948E-18
  2.827353669592E-18  1.737152881197E-18  1.061405506119E-18  6.448831552255E-19
  3.895899910566E-19  2.340086518876E-19  1.397408401767E-19  8.295674048253E-20
  4.895376711932E-20  2.871411967611E-20  1.673972465398E-20  9.698679591156E-21
  5.584137537963E-21  3.194817787871E-21  1.816140623080E-21  1.025729226552E-21
  5.755219973970E-22  3.207765981821E-22  1.775906547753E-22  9.765145332432E-23
  5.332651018164E-23  0.000000000000E+00  0.000000000000E+00  0.000000000000E+00
  0.000000000000E+00
</data>
</radfunc>
</valence-charge>
<pseudocore-charge matching-radius="0.535673147899"
 number-of-continuous-derivatives="4">
<annotation model-charge-form="Teter function with specified parameters" />
<radfunc>
<data npts="290">
  4.132186152940E+01  4.131594116450E+01  4.129824582950E+01  4.126873269050E+01
  4.122771749811E+01  4.117381903648E+01  4.110517905724E+01  4.102665313382E+01
  4.093845191834E+01  4.083571935993E+01  4.072008221479E+01  4.059458491169E+01
  4.044318161946E+01  4.028536889468E+01  4.009961635588E+01  3.991455287954E+01
  3.970200290965E+01  3.950107734977E+01  3.927583684092E+01  3.902350092281E+01
  3.874101463133E+01  3.849107982903E+01  3.821786293562E+01  3.791938623240E+01
  3.759354404424E+01  3.723810329751E+01  3.685070651557E+01  3.653770261051E+01
  3.620424784871E+01  3.584922585862E+01  3.547149324585E+01  3.506988484312E+01
  3.464322017234E+01  3.419031127310E+01  3.370997206041E+01  3.320102938180E+01
  3.266233594754E+01  3.209278530812E+01  3.169542129173E+01  3.128358304874E+01
  3.085699635089E+01  3.041540817829E+01  2.995859002861E+01  2.948634146197E+01
  2.899849388269E+01  2.849491455588E+01  2.797551085422E+01  2.744023472572E+01
  2.688908736959E+01  2.632212410176E+01  2.573945938609E+01  2.514127200098E+01
  2.452781030357E+01  2.389939754606E+01  2.325643718999E+01  2.259941815469E+01
  2.192891992626E+01  2.124561744278E+01  2.055028566021E+01  1.984380369227E+01
  1.912715840592E+01  1.840144734313E+01  1.766788082867E+01  1.692778311417E+01
  1.618259240049E+01  1.543385957406E+01  1.468324548970E+01  1.430778103059E+01
  1.393251663193E+01  1.355768860471E+01  1.318353899137E+01  1.281031526608E+01
  1.243827000151E+01  1.206766050119E+01  1.169874839666E+01  1.133179920888E+01
  1.096708187333E+01  1.060486822844E+01  1.024543246739E+01  9.889050553067E+00
  9.535999596783E+00  9.186557201005E+00  8.841000767040E+00  8.499606768678E+00
  8.162649993162E+00  7.830402751145E+00  7.503134057648E+00  7.181108786342E+00
  6.864586799871E+00  6.553822059289E+00  6.249061716044E+00  5.950545190371E+00
  5.658503240297E+00  5.373157025896E+00  5.094717173776E+00  4.823382847184E+00
  4.559340827479E+00  4.302764613031E+00  4.053813541985E+00  3.812631945548E+00
  3.579348338773E+00  3.354074655971E+00  3.136905538065E+00  2.927917679309E+00
  2.727169240783E+00  2.534699338092E+00  2.350527610539E+00  2.174653878857E+00
  2.007057898272E+00  1.847699213297E+00  1.696517120137E+00  1.553430742000E+00
  1.418339221873E+00  1.291122036532E+00  1.171639434587E+00  1.059733000348E+00
  9.552263441460E-01  8.579259184957E-01  7.676219581713E-01  6.840895408526E-01
  6.070897635335E-01  5.363710283743E-01  4.716704301334E-01  4.127152357745E-01
  3.592244453173E-01  3.109104215197E-01  2.674805745781E-01  2.286390867311E-01
  1.940886604906E-01  1.635322732312E-01  1.366749200745E-01  1.132253264442E-01
  9.289761136603E-02  7.541288257397E-02  6.050074477858E-02  4.790070307967E-02
  3.736344447024E-02  2.865198169112E-02  2.154264535358E-02  1.582591223960E-02
  1.130705999782E-02  7.806641048624E-03  5.160771354689E-03  3.221232756481E-03
  1.855390756139E-03  9.459328920390E-04  3.904361052142E-04  1.007746772929E-04
  2.383332960855E-06  3.339286160325E-05  1.436580370666E-04  2.936996195682E-04
  4.535837348919E-04  6.017628787605E-04  7.239031379638E-04  8.117219205420E-04
  8.618595308321E-04  8.748063191235E-04  8.539049112459E-04  8.044442361321E-04
  7.328587988100E-04  6.460429946364E-04  5.507863502176E-04  4.533315460018E-04
  3.590530748717E-04  2.722505753176E-04  1.960474002952E-04  1.323819877510E-04
  8.207721309333E-05  4.497123008188E-05  2.009241575599E-05  5.860961062072E-06
  3.003846439919E-07  1.243742751936E-06  6.521471064452E-06  1.412049317035E-05
  2.230730158112E-05  2.971097263439E-05  3.536531597176E-05  3.871238201588E-05
  3.957217048878E-05  3.808544050140E-05  3.463789912855E-05  2.977467188556E-05
  2.411382333486E-05  1.826684681132E-05  1.277258362130E-05  8.049118165861E-06
  4.366017437595E-06  1.837052957496E-06  4.314733892446E-07  1.805399381414E-10
  3.119553194263E-07  1.094283548290E-06  2.073378071494E-06  3.008646526125E-06
  3.718009048735E-06  4.091966915640E-06  4.095963858112E-06  3.762155306011E-06
  3.173008826012E-06  2.440042163694E-06  1.681364706744E-06  1.001499531804E-06
  4.762806208143E-07  1.445685268861E-07  7.285612700205E-09  0.000000000000E+00
  0.000000000000E+00  0.000000000000E+00  0.000000000000E+00  0.000000000000E+00
  0.000000000000E+00  0.000000000000E+00  0.000000000000E+00  0.000000000000E+00
  0.000000000000E+00  0.000000000000E+00  0.000000000000E+00  0.000000000000E+00
  0.000000000000E+00  0.000000000000E+00  0.000000000000E+00  0.000000000000E+00
  0.000000000000E+00  0.000000000000E+00  0.000000000000E+00  0.000000000000E+00
  0.000000000000E+00  0.000000000000E+00  0.000000000000E+00  0.000000000000E+00
  0.000000000000E+00  0.000000000000E+00  0.000000000000E+00  0.000000000000E+00
  0.000000000000E+00  0.000000000000E+00  0.000000000000E+00  0.000000000000E+00
  0.000000000000E+00  0.000000000000E+00  0.000000000000E+00  0.000000000000E+00
  0.000000000000E+00  0.000000000000E+00  0.000000000000E+00  0.000000000000E+00
  0.000000000000E+00  0.000000000000E+00  0.000000000000E+00  0.000000000000E+00
  0.000000000000E+00  0.000000000000E+00  0.000000000000E+00  0.000000000000E+00
  0.000000000000E+00  0.000000000000E+00  0.000000000000E+00  0.000000000000E+00
  0.000000000000E+00  0.000000000000E+00  0.000000000000E+00  0.000000000000E+00
  0.000000000000E+00  0.000000000000E+00  0.000000000000E+00  0.000000000000E+00
  0.000000000000E+00  0.000000000000E+00  0.000000000000E+00  0.000000000000E+00
  0.000000000000E+00  0.000000000000E+00  0.000000000000E+00  0.000000000000E+00
  0.000000000000E+00  0.000000000000E+00  0.000000000000E+00  0.000000000000E+00
  0.000000000000E+00  0.000000000000E+00  0.000000000000E+00  0.000000000000E+00
  0.000000000000E+00  0.000000000000E+00  0.000000000000E+00  0.000000000000E+00
  0.000000000000E+00  0.000000000000E+00
</data>
</radfunc>
</pseudocore-charge>
<semilocal-potentials set="scalar_relativistic">
<slps n="3" l="s" rc="1.35825043251" eref="-2.28828512451">
<radfunc>
<data npts="290">
 -2.550520147825E+00 -2.553010264758E+00 -2.560449159989E+00 -2.572849893418E+00
 -2.590071163741E+00 -2.612680067155E+00 -2.641436985764E+00 -2.674286802497E+00
 -2.711122103719E+00 -2.753943669885E+00 -2.802038446613E+00 -2.854107927429E+00
 -2.916751808183E+00 -2.981845924075E+00 -3.058202238887E+00 -3.133994869232E+00
 -3.220701439477E+00 -3.302330920225E+00 -3.393454319095E+00 -3.495060376334E+00
 -3.608211211933E+00 -3.707803279810E+00 -3.816118763130E+00 -3.933793018065E+00
 -4.061482304163E+00 -4.199859017400E+00 -4.349605578192E+00 -4.469789080601E+00
 -4.597040303620E+00 -4.731641336869E+00 -4.873866576077E+00 -5.023979408117E+00
 -5.182228514212E+00 -5.348843782874E+00 -5.524031830123E+00 -5.707971131743E+00
 -5.900806780657E+00 -6.102644892056E+00 -6.242237267406E+00 -6.385864787676E+00
 -6.533522316056E+00 -6.685192933554E+00 -6.840847072222E+00 -7.000441642325E+00
 -7.163919158804E+00 -7.331206872862E+00 -7.502215914891E+00 -7.676840455372E+00
 -7.854956890714E+00 -8.036423061293E+00 -8.221077509198E+00 -8.408738783367E+00
 -8.599204799942E+00 -8.792252265709E+00 -8.987636172517E+00 -9.185089370516E+00
 -9.384322227965E+00 -9.585022385222E+00 -9.786854610377E+00 -9.989460763815E+00
 -1.019245987879E+01 -1.039544836494E+01 -1.059800034154E+01 -1.079966810707E+01
 -1.099998275156E+01 -1.119845491834E+01 -1.139457572124E+01 -1.149159025636E+01
 -1.158781782369E+01 -1.168318982789E+01 -1.177763668575E+01 -1.187108787487E+01
 -1.196347198497E+01 -1.205471677225E+01 -1.214474921659E+01 -1.223349558169E+01
 -1.232088147821E+01 -1.240683192995E+01 -1.249127144295E+01 -1.257412407768E+01
 -1.265531352425E+01 -1.273476318059E+01 -1.281239623369E+01 -1.288813574373E+01
 -1.296190473114E+01 -1.303362626657E+01 -1.310322356356E+01 -1.317062007389E+01
 -1.323573958555E+01 -1.329850632306E+01 -1.335884505004E+01 -1.341668117393E+01
 -1.347194085239E+01 -1.352455110145E+01 -1.357443990485E+01 -1.362153632444E+01
 -1.366577061117E+01 -1.370707431638E+01 -1.374538040286E+01 -1.378062335535E+01
 -1.381273928984E+01 -1.384166606125E+01 -1.386734336886E+01 -1.388971285887E+01
 -1.390871822361E+01 -1.392430529649E+01 -1.393642214230E+01 -1.394501914199E+01
 -1.395004907144E+01 -1.395146717339E+01 -1.394923122216E+01 -1.394330158035E+01
 -1.393364124744E+01 -1.392021589948E+01 -1.390299392021E+01 -1.388194642313E+01
 -1.385704726511E+01 -1.382827305181E+01 -1.379560313595E+01 -1.375901960953E+01
 -1.371850729173E+01 -1.367405371481E+01 -1.362564911070E+01 -1.357328640199E+01
 -1.351696120142E+01 -1.345667182514E+01 -1.339241932572E+01 -1.332420755207E+01
 -1.325204324431E+01 -1.317593617280E+01 -1.309589933193E+01 -1.301194920004E+01
 -1.292410607823E+01 -1.283239452198E+01 -1.273684388016E+01 -1.263748895714E+01
 -1.253437081399E+01 -1.242753772521E+01 -1.231704630686E+01 -1.220296283165E+01
 -1.208536474447E+01 -1.196434239014E+01 -1.184000096129E+01 -1.171246267027E+01
 -1.158186914271E+01 -1.144838402351E+01 -1.131219577667E+01 -1.117352064977E+01
 -1.103260576140E+01 -1.088973225504E+01 -1.074521844697E+01 -1.059942287770E+01
 -1.045274715739E+01 -1.030563847602E+01 -1.015859162947E+01 -1.001215039429E+01