<?xml version="1.0" encoding="UTF-8" ?>
<psml version="1.1" energy_unit="hartree" length_unit="bohr"
 uuid="e49769c0-23d3-11e8-7249-c9ac63dd0ef6"
 xmlns="http://esl.cecam.org/PSML/ns/1.1">
<provenance creator="ONCVPSP-3.3.0+psml-3.3.0-73 (scalar-relativistic)"
 date="2018-03-09">
<annotation action="semilocal-pseudopotential-generation"
 action-cont="projectors-generation" />
<input-file name="oncvpsp-input">
<![CDATA[# atsym z nc nv iexc psfile
Tl 81 12 3 -001012 upf
# n l f
1 0 2.0
2 0 2.0
2 1 6.0
3 0 2.0
3 1 6.0
3 2 10.0
4 0 2.0
4 1 6.0
4 2 10.0
5 0 2.0
5 1 6.0
4 3 14.0
5 2 10.0
6 0 2.0
6 1 1.0
# lmax
2
# l rc ep ncon nbas qcut
0 2.0 0.0 4 7 2.8
1 2.6 0.0 4 7 2.6
2 2.0 0.0 4 8 7.4
# lloc lpopt rc5 dvloc0
4 5 2.0 0.0
# l nproj debl
0 2 2.5
1 2 2.8
2 2 1.0
# icmod fcfact rcfact
3 7.0 1.3
# epsh1 epsh2 depsh
-12.0 12.0 0.02
# rlmax drl
6.0 0.01
 0
]]>
</input-file>
</provenance>
<pseudo-atom-spec atomic-label="Tl" atomic-number="81" z-pseudo="13"
 flavor="Hamann&apos;s oncvpsp" relativity="scalar" spin-dft="no"
 core-corrections="yes">
<annotation pseudo-energy="-50.7534313323" />
<exchange-correlation>
<annotation oncvpsp-xc-code="-1012" oncvpsp-xc-type="libxc-interface" />
<libxc-info number-of-functionals="2">
<functional name="Slater exchange (LDA)" type="exchange" id="1" />
<functional name="Perdew &amp; Wang (LDA)" type="correlation" id="12" />
</libxc-info>
</exchange-correlation>
<valence-configuration total-valence-charge="13">
<shell n="5" l="d" occupation="10" />
<shell n="6" l="s" occupation="2" />
<shell n="6" l="p" occupation="1" />
</valence-configuration>
</pseudo-atom-spec>
<grid npts="457">
<annotation type="sampled from oncvpsp log grid"
 recipe="r(i:1..N) = r1*exp(a*(i-1)) + r=0; resampled"
 recipe-cont="r1: scale; a: step" scale="0.617283950617E-05"
 step="0.119285708653E-01" delta="0.500000000000E-02" rmax="44.0862366899" />
<grid-data>
  0.000000000000E+00  5.034229527132E-03  1.005547840830E-02  1.508482106348E-02
  2.008502899497E-02  2.519429444232E-02  3.049231521517E-02  3.560713762894E-02
  4.108688469256E-02  4.629225516251E-02  5.153863959675E-02  5.669921561583E-02
  6.237652131689E-02  6.780859383762E-02  7.283964381425E-02  7.824397190261E-02
  8.404927342464E-02  8.921472189043E-02  9.469762530576E-02  1.005174936213E-01
  1.066950358184E-01  1.119093217371E-01  1.173784346723E-01  1.231148282578E-01
  1.291315647484E-01  1.354423447633E-01  1.420615384838E-01  1.472373699362E-01
  1.526017762239E-01  1.581616278312E-01  1.639240455596E-01  1.698964096482E-01
  1.760863692255E-01  1.825018521063E-01  1.891510749455E-01  1.960425537609E-01
  2.031851148411E-01  2.105879060489E-01  2.156723404525E-01  2.208795334404E-01
  2.262124488958E-01  2.316741222619E-01  2.372676622698E-01  2.429962527077E-01
  2.488631542330E-01  2.548717062288E-01  2.610253287040E-01  2.673275242402E-01
  2.737818799855E-01  2.803920696959E-01  2.871618558266E-01  2.940950916737E-01
  3.011957235671E-01  3.084677931169E-01  3.159154395139E-01  3.235429018855E-01
  3.313545217086E-01  3.393547452808E-01  3.475481262508E-01  3.559393282110E-01
  3.645331273513E-01  3.733344151781E-01  3.823482012982E-01  3.915796162703E-01
  4.010339145255E-01  4.107164773579E-01  4.206328159872E-01  4.256804097790E-01
  4.307885746964E-01  4.359580375927E-01  4.411895340438E-01  4.464838084524E-01
  4.518416141538E-01  4.572637135236E-01  4.627508780859E-01  4.683038886230E-01
  4.739235352864E-01  4.796106177099E-01  4.853659451224E-01  4.911903364639E-01
  4.970846205014E-01  5.030496359474E-01  5.090862315788E-01  5.151952663578E-01
  5.213776095540E-01  5.276341408687E-01  5.339657505591E-01  5.403733395658E-01
  5.468578196406E-01  5.534201134763E-01  5.600611548380E-01  5.667818886961E-01
  5.735832713604E-01  5.804662706168E-01  5.874318658642E-01  5.944810482545E-01
  6.016148208336E-01  6.088341986836E-01  6.161402090678E-01  6.235338915766E-01
  6.310162982755E-01  6.385884938548E-01  6.462515557811E-01  6.540065744505E-01
  6.618546533439E-01  6.697969091840E-01  6.778344720942E-01  6.859684857593E-01
  6.942001075884E-01  7.025305088795E-01  7.109608749861E-01  7.194924054859E-01
  7.281263143517E-01  7.368638301239E-01  7.457061960854E-01  7.546546704385E-01
  7.637105264837E-01  7.728750528015E-01  7.821495534351E-01  7.915353480764E-01
  8.010337722533E-01  8.106461775203E-01  8.203739316506E-01  8.302184188304E-01
  8.401810398563E-01  8.502632123346E-01  8.604663708826E-01  8.707919673332E-01
  8.812414709412E-01  8.918163685925E-01  9.025181650156E-01  9.133483829958E-01
  9.243085635918E-01  9.354002663549E-01  9.466250695511E-01  9.579845703857E-01
  9.694803852304E-01  9.811141498531E-01  9.928875196514E-01  1.004802169887E+00
  1.016859795926E+00  1.029062113477E+00  1.041410858839E+00  1.053907789145E+00
  1.066554682614E+00  1.079353338806E+00  1.092305578871E+00  1.105413245818E+00
  1.118678204768E+00  1.132102343225E+00  1.145687571344E+00  1.159435822200E+00
  1.173349052066E+00  1.187429240691E+00  1.201678391579E+00  1.216098532278E+00
  1.230691714666E+00  1.245460015242E+00  1.260405535424E+00  1.275530401850E+00
  1.290836766672E+00  1.306326807872E+00  1.322002729566E+00  1.337866762321E+00
  1.353921163469E+00  1.370168217431E+00  1.386610236040E+00  1.403249558872E+00
  1.420088553579E+00  1.437129616222E+00  1.454375171616E+00  1.471827673676E+00
  1.489489605760E+00  1.507363481029E+00  1.525451842801E+00  1.543757264915E+00
  1.562282352094E+00  1.581029740319E+00  1.600002097203E+00  1.619202122369E+00
  1.638632547838E+00  1.658296138412E+00  1.678195692073E+00  1.698334040378E+00
  1.718714048862E+00  1.739338617448E+00  1.760210680858E+00  1.781333209028E+00
  1.802709207536E+00  1.824341718027E+00  1.846233818643E+00  1.868388624467E+00
  1.890809287960E+00  1.913498999416E+00  1.936460987409E+00  1.959698519258E+00
  1.983214901489E+00  2.007013480307E+00  2.031097642071E+00  2.055470813775E+00
  2.080136463541E+00  2.105098101103E+00  2.130359278316E+00  2.155923589656E+00
  2.181794672732E+00  2.207976208805E+00  2.234471923311E+00  2.261285586390E+00
  2.288421013427E+00  2.315882065588E+00  2.343672650375E+00  2.371796722180E+00
  2.400258282846E+00  2.429061382240E+00  2.458210118827E+00  2.487708640253E+00
  2.517561143936E+00  2.547771877663E+00  2.578345140195E+00  2.609285281877E+00
  2.640596705260E+00  2.672283865723E+00  2.704351272112E+00  2.736803487377E+00
  2.769645129225E+00  2.802880870776E+00  2.836515441225E+00  2.870553626520E+00
  2.905000270038E+00  2.939860273279E+00  2.975138596558E+00  3.010840259717E+00
  3.046970342834E+00  3.083533986948E+00  3.120536394791E+00  3.157982831528E+00
  3.195878625507E+00  3.234229169013E+00  3.273039919041E+00  3.312316398069E+00
  3.352064194846E+00  3.392288965184E+00  3.432996432767E+00  3.474192389960E+00
  3.515882698639E+00  3.558073291023E+00  3.600770170515E+00  3.643979412562E+00
  3.687707165512E+00  3.731959651498E+00  3.776743167316E+00  3.822064085324E+00
  3.867928854348E+00  3.914344000600E+00  3.961316128607E+00  4.008851922151E+00
  4.056958145217E+00  4.105641642959E+00  4.154909342675E+00  4.204768254787E+00
  4.255225473844E+00  4.306288179530E+00  4.357963637685E+00  4.410259201337E+00
  4.463182311753E+00  4.516740499494E+00  4.570941385488E+00  4.625792682114E+00
  4.681302194299E+00  4.737477820631E+00  4.794327554478E+00  4.851859485132E+00
  4.910081798954E+00  4.969002780541E+00  5.028630813908E+00  5.088974383674E+00
  5.150042076279E+00  5.211842581194E+00  5.274384692168E+00  5.337677308474E+00
  5.401729436176E+00  5.466550189410E+00  5.532148791683E+00  5.598534577183E+00
  5.665716992109E+00  5.733705596015E+00  5.802510063167E+00  5.872140183925E+00
  5.942605866132E+00  6.013917136526E+00  6.086084142164E+00  6.159117151870E+00
  6.233026557692E+00  6.307822876385E+00  6.383516750901E+00  6.460118951912E+00
  6.537640379335E+00  6.616092063887E+00  6.695485168654E+00  6.775830990677E+00
  6.857140962566E+00  6.939426654116E+00  7.022699773966E+00  7.106972171253E+00
  7.192255837308E+00  7.278562907356E+00  7.365905662244E+00  7.454296530191E+00
  7.543748088554E+00  7.634273065616E+00  7.725884342404E+00  7.818594954512E+00
  7.912418093967E+00  8.007367111094E+00  8.103455516427E+00  8.200696982624E+00
  8.299105346416E+00  8.398694610573E+00  8.499478945900E+00  8.601472693251E+00
  8.704690365570E+00  8.809146649956E+00  8.914856409756E+00  9.021834686673E+00
  9.130096702913E+00  9.239657863348E+00  9.350533757708E+00  9.462740162801E+00
  9.576293044754E+00  9.691208561291E+00  9.807503064027E+00  9.925193100795E+00
  1.004429541800E+01  1.016482696302E+01  1.028680488658E+01  1.041024654522E+01
  1.053516950376E+01  1.066159153780E+01  1.078953063626E+01  1.091900500389E+01
  1.105003306394E+01  1.118263346071E+01  1.131682506223E+01  1.145262696298E+01
  1.159005848654E+01  1.172913918838E+01  1.186988885864E+01  1.201232752494E+01
  1.215647545524E+01  1.230235316070E+01  1.244998139863E+01  1.259938117541E+01
  1.275057374952E+01  1.290358063451E+01  1.305842360213E+01  1.321512468535E+01
  1.337370618158E+01  1.353419065576E+01  1.369660094363E+01  1.386096015495E+01
  1.402729167681E+01  1.419561917693E+01  1.436596660705E+01  1.453835820634E+01
  1.471281850481E+01  1.488937232687E+01  1.506804479479E+01  1.524886133233E+01
  1.543184766832E+01  1.561702984034E+01  1.580443419842E+01  1.599408740880E+01
  1.618601645771E+01  1.638024865520E+01  1.657681163907E+01  1.677573337873E+01
  1.697704217928E+01  1.718076668543E+01  1.738693588566E+01  1.759557911628E+01
  1.780672606568E+01  1.802040677847E+01  1.823665165981E+01  1.845549147973E+01
  1.867695737748E+01  1.890108086601E+01  1.912789383640E+01  1.935742856244E+01
  1.958971770519E+01  1.982479431765E+01  2.006269184946E+01  2.030344415166E+01
  2.054708548148E+01  2.079365050726E+01  2.104317431334E+01  2.129569240510E+01
  2.155124071396E+01  2.180985560253E+01  2.207157386976E+01  2.233643275620E+01
  2.260446994927E+01  2.287572358867E+01  2.315023227173E+01  2.342803505899E+01
  2.370917147970E+01  2.399368153745E+01  2.428160571590E+01  2.457298498449E+01
  2.486786080431E+01  2.516627513396E+01  2.546827043557E+01  2.577388968079E+01
  2.608317635696E+01  2.639617447325E+01  2.671292856693E+01  2.703348370973E+01
  2.735788551425E+01  2.768618014042E+01  2.801841430210E+01  2.835463527373E+01
  2.869489089701E+01  2.903922958778E+01  2.938770034283E+01  2.974035274694E+01
  3.009723697991E+01  3.045840382367E+01  3.082390466955E+01  3.119379152558E+01
  3.156811702389E+01  3.194693442818E+01  3.233029764132E+01  3.271826121301E+01
  3.311088034757E+01  3.350821091174E+01  3.391030944268E+01  3.431723315599E+01
  3.472903995386E+01  3.514578843331E+01  3.556753789451E+01  3.599434834924E+01
  3.642628052944E+01  3.686339589579E+01  3.730575664654E+01  3.775342572630E+01
  3.820646683501E+01  3.866494443703E+01  3.912892377028E+01  3.959847085552E+01
  4.007365250579E+01  4.055453633586E+01  4.104119077189E+01  4.153368506115E+01
  4.203208928188E+01  4.253647435326E+01  4.304691204550E+01  4.356347499005E+01
  4.408623668993E+01
</grid-data>
</grid>
<valence-charge total-charge="13" is-unscreening-charge="yes"
 rescaled-to-z-pseudo="no">
<radfunc>
<data npts="457">
  3.170772194851E-03  3.173028999505E-03  3.180562465584E-03  3.195756519377E-03
  3.222336865892E-03  3.266944631924E-03  3.339695890812E-03  3.444881642413E-03
  3.608030008083E-03  3.824933352384E-03  4.119862416304E-03  4.501035519872E-03
  5.045917700898E-03  5.713332918488E-03  6.480329699141E-03  7.487924314416E-03
  8.812718639782E-03  1.023095343599E-02  1.201398002934E-02  1.425601368242E-02
  1.707534617456E-02  1.984497270069E-02  2.317112945565E-02  2.716486513701E-02
  3.195888888979E-02  3.771160787556E-02  4.461185319777E-02  5.067378569347E-02
  5.761688549579E-02  6.556636102012E-02  7.466441843749E-02  8.507237288955E-02
  9.697297399603E-02  1.105729552099E-01  1.261058133779E-01  1.438348203397E-01
  1.640562622326E-01  1.871028939818E-01  2.042192337758E-01  2.228771940401E-01
  2.432071251472E-01  2.653490825548E-01  2.894533453422E-01  3.156809286328E-01
  3.442040825710E-01  3.752067691658E-01  4.088851067844E-01  4.454477703894E-01
  4.851163337414E-01  5.281255377345E-01  5.747234667994E-01  6.251716128922E-01
  6.797448040073E-01  7.387309714148E-01  8.024307269672E-01  8.711567188651E-01
  9.452327312914E-01  1.024992490355E+00  1.110778135945E+00  1.202938316449E+00
  1.301825861015E+00  1.407794982222E+00  1.521197960933E+00  1.642381264864E+00
  1.771681053340E+00  1.909418023054E+00  2.055891553714E+00  2.132490650617E+00
  2.211373118650E+00  2.292567325653E+00  2.376098934045E+00  2.461990628567E+00
  2.550261831945E+00  2.640928408628E+00  2.734002356893E+00  2.829491489647E+00
  2.927399104410E+00  3.027723643037E+00  3.130458341896E+00  3.235590873312E+00
  3.343102979263E+00  3.452970098428E+00  3.565160987895E+00  3.679637340941E+00
  3.796353402539E+00  3.915255584377E+00  4.036282081407E+00  4.159362492108E+00
  4.284417444881E+00  4.411358233181E+00  4.540086462209E+00  4.670493710213E+00
  4.802461207637E+00  4.935859537593E+00  5.070548361313E+00  5.206376172452E+00
  5.343180084289E+00  5.480785654068E+00  5.619006748834E+00  5.757645457304E+00
  5.896492052389E+00  6.035325009066E+00  6.173911082370E+00  6.312005450240E+00
  6.449351925955E+00  6.585683244794E+00  6.720721429411E+00  6.854178238221E+00
  6.985755700844E+00  7.115146744300E+00  7.242035913265E+00  7.366100187215E+00
  7.487009896712E+00  7.604429740474E+00  7.718019904102E+00  7.827437280570E+00
  7.932336791639E+00  8.032372808424E+00  8.127200668218E+00  8.216478283605E+00
  8.299867838603E+00  8.377037565371E+00  8.447663593636E+00  8.511431863636E+00
  8.568040091992E+00  8.617199778465E+00  8.658638240196E+00  8.692100658612E+00
  8.717352122862E+00  8.734179652375E+00  8.742394179998E+00  8.741832476099E+00
  8.732358993174E+00  8.713867609765E+00  8.686283252039E+00  8.649563371101E+00
  8.603699254139E+00  8.548717147826E+00  8.484679172984E+00  8.411684010520E+00
  8.329867339905E+00  8.239402013159E+00  8.140497949323E+00  8.033401736794E+00
  7.918395933639E+00  7.795798059116E+00  7.665959272985E+00  7.529262742936E+00
  7.386121704348E+00  7.236977220718E+00  7.082295657395E+00  6.922565885526E+00
  6.758296237514E+00  6.590011239482E+00  6.418248150378E+00  6.243553341168E+00
  6.066478551081E+00  5.887577060985E+00  5.707399826512E+00  5.526491615599E+00
  5.345387196411E+00  5.164607622262E+00  4.984656659985E+00  4.806017407235E+00
  4.629149142432E+00  4.454484448411E+00  4.282426647413E+00  4.113347580817E+00
  3.947585762084E+00  3.785444925784E+00  3.627192989460E+00  3.473061438517E+00
  3.323245137481E+00  3.177902564002E+00  3.037156454958E+00  2.901094847228E+00
  2.769772489224E+00  2.643212593221E+00  2.521408893155E+00  2.404327967847E+00
  2.291911785767E+00  2.184080424440E+00  2.080734915512E+00  1.981760165345E+00
  1.887027900686E+00  1.796399589519E+00  1.709729288532E+00  1.626866370629E+00
  1.547658088594E+00  1.471951934253E+00  1.399597756309E+00  1.330449604430E+00
  1.264367272188E+00  1.201217517163E+00  1.140874942998E+00  1.083222535469E+00
  1.028151852744E+00  9.755628788542E-01  9.253631276944E-01  8.774648575761E-01
  8.317815708091E-01  7.882282087152E-01  7.467214213663E-01  7.071797155726E-01
  6.695236253108E-01  6.336758454175E-01  5.995613370263E-01  5.671074041007E-01
  5.362437415351E-01  5.069024557848E-01  4.790180595032E-01  4.525274422186E-01
  4.273698196436E-01  4.034866647512E-01  3.808216242444E-01  3.593204244659E-01
  3.389307711148E-01  3.196022473367E-01  3.012862148113E-01  2.839357223633E-01
  2.675054443655E-01  2.519517088774E-01  2.372325800764E-01  2.233078356398E-01
  2.101388963061E-01  1.976887884884E-01  1.859220941101E-01  1.748049020610E-01
  1.643047594875E-01  1.543906232937E-01  1.450328120419E-01  1.362029584108E-01
  1.278739623524E-01  1.200199450369E-01  1.126162037287E-01  1.056391676210E-01
  9.906635471586E-02  9.287632979168E-02  8.704866349156E-02  8.156389255827E-02
  7.640348122878E-02  7.154978379491E-02  6.698600832889E-02  6.269618156654E-02
  5.866511493606E-02  5.487837171582E-02  5.132223530145E-02  4.798367855954E-02
  4.485033424347E-02  4.191046644511E-02  3.915294305511E-02  3.656720920410E-02
  3.414326165633E-02  3.187162412788E-02  2.974332350131E-02  2.774986690930E-02
  2.588321966056E-02  2.413578398166E-02  2.250037854962E-02  2.097021879074E-02
  1.953889792215E-02  1.820036871358E-02  1.694892594744E-02  1.577918955672E-02
  1.468608842058E-02  1.366484479857E-02  1.271095938525E-02  1.182019696752E-02
  1.098857266772E-02  1.021233875609E-02  9.487972016796E-03  8.812161652193E-03
  8.181797710178E-03  7.593960020192E-03  7.045907623430E-03  6.535068683210E-03
  6.059030861625E-03  5.615532148740E-03  5.202452130772E-03  4.817803683766E-03
  4.459725079360E-03  4.126472489330E-03  3.816412875619E-03  3.528017252644E-03
  3.259854308688E-03  3.010584373263E-03  2.778953717367E-03  2.563789173636E-03
  2.363993063483E-03  2.178538418385E-03  2.006464482631E-03  1.846872484953E-03
  1.698921666644E-03  1.561825553913E-03  1.434848462485E-03  1.317302222611E-03
  1.208543112974E-03  1.107968992191E-03  1.015016616934E-03  9.291591360020E-04
  8.499037499870E-04  7.767895265580E-04  7.093853617123E-04  6.472880777426E-04
  5.901206490440E-04  5.375305472769E-04  4.891881978052E-04  4.447855397280E-04
  4.040346822290E-04  3.666666503720E-04  3.324302138687E-04  3.010907927428E-04
  2.724294342020E-04  2.462418554091E-04  2.223375472115E-04  2.005389342494E-04
  1.806805872017E-04  1.626084832626E-04  1.461793112537E-04  1.312598180756E-04
  1.177261934831E-04  1.054634904332E-04  9.436507850128E-05  8.433212808951E-05
  7.527312336485E-05  6.710340205643E-05  5.974472042171E-05  5.312484185175E-05
  4.717714773177E-05  4.184026930450E-05  3.705773940039E-05  3.277766300258E-05
  2.895240570539E-05  2.553829920508E-05  2.249536303058E-05  1.978704178146E-05
  1.737995719160E-05  1.524367438016E-05  1.335048168795E-05  1.167518352828E-05
  1.019490570634E-05  8.888912683250E-06  7.738436277917E-06  6.726515315183E-06
  5.837845741087E-06  5.058640736949E-06  4.376500373515E-06  3.780290355161E-06
  3.260029412358E-06  2.806784908711E-06  2.412576236988E-06  2.070285587013E-06
  1.773575677109E-06  1.516814050161E-06  1.295003545345E-06  1.103718567171E-06
  9.390467847233E-07  7.975359058890E-07  6.761451837616E-07  5.722013254146E-07
  4.833584866412E-07  4.075620500475E-07  3.430158979614E-07  2.881529058758E-07
  2.416083965146E-07  2.021963089774E-07  1.688878517172E-07  1.407924222410E-07
  1.171405903199E-07  9.726895509059E-08  8.060669965003E-08  6.666367954565E-08
  5.501989389128E-08  4.531619965857E-08  3.724614097281E-08  3.054877596007E-08
  2.500239383099E-08  2.041902443894E-08  1.663965151224E-08  1.353004913603E-08
  1.097716885590E-08  8.886012006064E-09  7.176928544784E-09  5.783289829210E-09
  4.649488401432E-09  3.729223012370E-09  2.984031804542E-09  2.382040835478E-09
  1.896898977495E-09  1.506873703573E-09  1.194085390470E-09  9.438605651441E-10
  7.441870156976E-10  5.852559061113E-10  4.590780042883E-10  3.591628699823E-10
  2.802513833218E-10  2.180933400033E-10  1.692630175890E-10  1.310066455404E-10
  1.011166060143E-10  7.782796796297E-11  5.973362739422E-11  4.571490417180E-11
  3.488494173864E-11  2.654268076752E-11  2.013554009415E-11  1.522924650416E-11
  1.148351627068E-11  8.632512187400E-12  6.469185876457E-12  4.832771345647E-12
  3.598826479545E-12  2.671328170969E-12  1.976417427678E-12  1.457465875227E-12
  1.071197075629E-12  7.846470996666E-13  5.727906292834E-13  4.166930583012E-13
  3.020769050652E-13  2.182134476818E-13  1.570687654607E-13  1.126480935466E-13
  8.049421816971E-14  5.730509544045E-14  4.064341146124E-14  2.871678594127E-14
  2.021205299870E-14  1.417078324690E-14  9.896138616497E-15  6.883440736951E-15
  4.768616844439E-15  3.290070575405E-15  2.260593973189E-15  1.546759705582E-15
  1.053863026218E-15  7.149642898905E-16  4.829486490787E-16  3.247964414108E-16
  2.174664518075E-16  1.449508224548E-16  9.617737562053E-17  6.352213590440E-17
  4.175927828449E-17  2.732323063068E-17  1.779251605365E-17  1.153037972211E-17
  7.435753227477E-18  4.771501287042E-18  3.046538578511E-18  1.935315595505E-18
  1.223095929313E-18  0.000000000000E+00  0.000000000000E+00  0.000000000000E+00
  0.000000000000E+00
</data>
</radfunc>
</valence-charge>
<pseudocore-charge matching-radius="1.10541324582"
 number-of-continuous-derivatives="4">
<annotation model-charge-form="Teter function with specified parameters" />
<radfunc>
<data npts="290">
  5.414861142464E+01  5.414651188530E+01  5.414023536244E+01  5.412976298478E+01
  5.411520074576E+01  5.409604931258E+01  5.407163505351E+01  5.404367032856E+01
  5.400892725798E+01  5.397134929075E+01  5.392897438291E+01  5.388289396048E+01
  5.382717276222E+01  5.376894215739E+01  5.371073491822E+01  5.364364322346E+01
  5.356632400065E+01  5.349297289013E+01  5.341044148296E+01  5.331759687754E+01
  5.321317068741E+01  5.312034295915E+01  5.301839553740E+01  5.290645174200E+01
  5.278355466303E+01  5.264866067687E+01  5.250063262604E+01  5.238025172397E+01
  5.225122710853E+01  5.211296105122E+01  5.196481801283E+01  5.180612280397E+01
  5.163615874826E+01  5.145416586772E+01  5.125933911360E+01  5.105082667053E+01
  5.082772836668E+01  5.058909422864E+01  5.042088158185E+01  5.024501086431E+01
  5.006116225776E+01  4.986900547945E+01  4.966819974529E+01  4.945839377247E+01
  4.923922582667E+01  4.901032381937E+01  4.877130546153E+01  4.852177847989E+01
  4.826134090328E+01  4.798958142624E+01  4.770607985829E+01  4.741040766753E+01
  4.710212862770E+01  4.678079957879E+01  4.644597131142E+01  4.609718958602E+01
  4.573399629840E+01  4.535593080361E+01  4.496253141065E+01  4.455333706084E+01
  4.412788920297E+01  4.368573387876E+01  4.322642403183E+01  4.274952205381E+01
  4.225460258041E+01  4.174125555030E+01  4.120908953849E+01  4.093583307454E+01
  4.065773537503E+01  4.037475441309E+01  4.008685005846E+01  3.979398421642E+01
  3.949612097155E+01  3.919322673633E+01  3.888527040465E+01  3.857222351011E+01
  3.825406038917E+01  3.793075834907E+01  3.760229784041E+01  3.726866263446E+01
  3.692984000486E+01  3.658582091384E+01  3.623660020256E+01  3.588217678566E+01
  3.552255384951E+01  3.515773905424E+01  3.478774473898E+01  3.441258813030E+01
  3.403229155326E+01  3.364688264488E+01  3.325639456953E+01  3.286086623578E+01
  3.246034251428E+01  3.205487445609E+01  3.164451951086E+01  3.122934174418E+01
  3.080941205364E+01  3.038480838247E+01  2.995561593039E+01  2.952192736050E+01
  2.908384300148E+01  2.864147104413E+01  2.819492773108E+01  2.774433753886E+01
  2.728983335093E+01  2.683155662063E+01  2.636965752276E+01  2.590429509247E+01
  2.543563735011E+01  2.496386141059E+01  2.448915357580E+01  2.401170940857E+01
  2.353173378661E+01  2.304944093475E+01  2.256505443390E+01  2.207880720509E+01
  2.159094146678E+01  2.110170866370E+01  2.061136936576E+01  2.012019313485E+01
  1.962845835829E+01  1.913645204682E+01  1.864446959582E+01  1.815281450784E+01
  1.766179807517E+01  1.717173902072E+01  1.668296309608E+01  1.619580263533E+01
  1.571059606355E+01  1.522768735903E+01  1.474742546847E+01  1.427016367447E+01
  1.379625891497E+01  1.332607105456E+01  1.285996210776E+01  1.239829541475E+01
  1.194143477021E+01  1.148974350649E+01  1.104358353255E+01  1.060331433041E+01
  1.016929191164E+01  9.741867736316E+00  9.321387597792E+00  8.908190476927E+00
  8.502607369794E+00  8.104960093594E+00  7.715560075869E+00  7.334707132675E+00
  6.962688241864E+00  6.599776318139E+00  6.246228997039E+00  5.902287435453E+00
  5.568175136753E+00  5.244096809003E+00  4.930237265104E+00  4.626760374024E+00
  4.333808072544E+00  4.051499447126E+00  3.779929895634E+00  3.519170378646E+00
  3.269266770034E+00  3.030239316324E+00  2.802082214010E+00  2.584763313639E+00
  2.378223958895E+00  2.182378968244E+00  1.997116765885E+00  1.822299667779E+00
  1.657764327427E+00  1.503322344803E+00  1.358761040473E+00  1.223844395382E+00
  1.098314155172E+00  9.818910960916E-01  8.742764477282E-01  7.751534658462E-01
  6.841891466167E-01  6.010360715091E-01  5.253343700877E-01  4.567137859735E-01
  3.947958293033E-01  3.391959972104E-01  2.895260421817E-01  2.453962666631E-01
  2.064178210427E-01  1.722049811551E-01  1.423773807902E-01  1.165621743671E-01
  9.439610500552E-02  7.552745369908E-02  5.961784621153E-02  4.634389567717E-02
  3.539866070281E-02  2.649290103653E-02  1.935611556939E-02  1.373735054527E-02
  9.405769328012E-03  6.150978862792E-03  3.783112001721E-03  2.132669064933E-03
  1.050126287197E-03  4.053230572617E-04  8.664398564963E-05  1.572472929531E-08
  6.774199905882E-05  2.272033727350E-04  4.294507781193E-04  6.377236614287E-04
  8.259246843328E-04  9.770831948077E-04  1.081839105818E-03  1.136977384136E-03
  1.144041070212E-03  1.108047671085E-03  1.036329971387E-03  9.375179033643E-04
  8.206732453103E-04  6.945837443904E-04  5.672179697475E-04  4.453369937298E-04
  3.342540765821E-04  2.377290922167E-04  1.579806646679E-04  9.579604697410E-05
  5.071679278272E-05  2.127732925467E-05  5.273671240442E-06  4.069999605651E-08
  2.718587319715E-06  1.049194557955E-05  2.078894378467E-05  3.143172706437E-05
  4.073376070359E-05  4.754392602131E-05  5.124106358804E-05  5.168595131387E-05
  4.914022230368E-05  4.416332716708E-05  3.749925286682E-05  2.996432621817E-05
  2.234613362244E-05  1.532153150981E-05  9.399118134509E-06  4.888645013826E-06
  1.896945410538E-06  3.473237516203E-07  1.722891153484E-08  5.876153721561E-07
  1.696793021484E-06  2.991803503595E-06  4.171370699628E-06  5.016101263148E-06
  5.403635373501E-06  5.308602324176E-06  4.789244042447E-06  3.964180453836E-06
  2.983809683395E-06  2.001153509146E-06  1.146564297910E-06  5.096959281179E-07
  1.306891355714E-07  8.748024349955E-10  0.000000000000E+00  0.000000000000E+00
  0.000000000000E+00  0.000000000000E+00  0.000000000000E+00  0.000000000000E+00
  0.000000000000E+00  0.000000000000E+00  0.000000000000E+00  0.000000000000E+00
  0.000000000000E+00  0.000000000000E+00  0.000000000000E+00  0.000000000000E+00
  0.000000000000E+00  0.000000000000E+00  0.000000000000E+00  0.000000000000E+00
  0.000000000000E+00  0.000000000000E+00  0.000000000000E+00  0.000000000000E+00
  0.000000000000E+00  0.000000000000E+00  0.000000000000E+00  0.000000000000E+00
  0.000000000000E+00  0.000000000000E+00
</data>
</radfunc>
</pseudocore-charge>
<semilocal-potentials set="scalar_relativistic">
<slps n="6" l="s" rc="2.00701348031" eref="-0.361231898813">
<radfunc>
<data npts="290">
  2.953268579846E+01  2.951600894618E+01  2.946622198837E+01  2.938337916652E+01
  2.926865193014E+01  2.911859371325E+01  2.892864523825E+01  2.871290587478E+01
  2.844756214826E+01  2.816386876369E+01  2.784800370718E+01  2.750928709732E+01
  2.710619745561E+01  2.669236544021E+01  2.628607406052E+01  2.582666701886E+01
  2.530869633524E+01  2.482830246976E+01  2.430015553874E+01  2.372111821011E+01
  2.308822006982E+01  2.254129414359E+01  2.195694864023E+01  2.133417053989E+01
  2.067219043032E+01  1.997052889917E+01  1.922904357074E+01  1.864692445816E+01
  1.804278857822E+01  1.741703806863E+01  1.677022832169E+01  1.610307515948E+01
  1.541646041558E+01  1.471143566450E+01  1.398922386413E+01  1.325121871208E+01
  1.249898156295E+01  1.173423581078E+01  1.121837709762E+01  1.069838246847E+01
  1.017487064641E+01  9.648485116176E+00  9.119892055656E+00  8.589778095155E+00
  8.058847923398E+00  7.527821761225E+00  6.997432725967E+00  6.468424111051E+00
  5.941546606448E+00  5.417555486246E+00  4.897207789704E+00  4.381259521749E+00
  3.870462897895E+00  3.365563657074E+00  2.867298463815E+00  2.376392418678E+00
  1.893556692815E+00  1.419486299072E+00  9.548580081647E-01  5.003284142471E-01
  5.653214964934E-02 -3.759197562327E-01 -7.964413839175E-01 -1.204473311879E+00
 -1.599483906126E+00 -1.980970537147E+00 -2.348460755403E+00 -2.526818109105E+00
 -2.701513461863E+00 -2.872496772743E+00 -3.039720115293E+00 -3.203137720611E+00
 -3.362706022933E+00 -3.518383708181E+00 -3.670131765929E+00 -3.817913545261E+00
 -3.961694814982E+00 -4.101443828695E+00 -4.237131395208E+00 -4.368730954786E+00
 -4.496218661724E+00 -4.619573473744E+00 -4.738777248674E+00 -4.853814848885E+00
 -4.964674253917E+00 -5.071346681696E+00 -5.173826718735E+00 -5.272112459621E+00
 -5.366205656073E+00 -5.456111875776E+00 -5.541840671103E+00 -5.623405757772E+00
 -5.700825203359E+00 -5.774121625456E+00 -5.843322399156E+00 -5.908459873354E+00
 -5.969571595186E+00 -6.026700541738E+00 -6.079895357918E+00 -6.129210599150E+00
 -6.174706977272E+00 -6.216451607754E+00 -6.254518255993E+00 -6.288987580148E+00
 -6.319947367612E+00 -6.347492761818E+00 -6.371726475717E+00 -6.392758987865E+00
 -6.410708716623E+00 -6.425702167598E+00 -6.437874049057E+00 -6.447367349654E+00
 -6.454333372479E+00 -6.458931719147E+00 -6.461330217357E+00 -6.461704785238E+00
 -6.460239225658E+00 -6.457124943727E+00 -6.452560580851E+00 -6.446751558989E+00
 -6.439909529206E+00 -6.432251719226E+00 -6.424000175526E+00 -6.415380896485E+00
 -6.406622854367E+00 -6.397956905309E+00 -6.389614588162E+00 -6.381826814856E+00
 -6.374822456996E+00 -6.368826835573E+00 -6.364060122981E+00 -6.360735668913E+00
 -6.359058264132E+00 -6.359222358469E+00 -6.361410251703E+00 -6.365790278070E+00
 -6.372515007032E+00 -6.381719484453E+00 -6.393519539510E+00 -6.408010183355E+00
 -6.425264125713E+00 -6.445330435267E+00 -6.468233368678E+00 -6.493971391578E+00
 -6.522516412736E+00 -6.553813249905E+00 -6.587779342711E+00 -6.624304724333E+00
 -6.663252259818E+00 -6.704458154737E+00 -6.747732733631E+00 -6.792861483523E+00
 -6.839606353662E+00 -6.887707298923E+00 -6.936884050848E+00 -6.986838097422E+00