<?xml version="1.0" encoding="UTF-8" ?>
<psml version="1.1" energy_unit="hartree" length_unit="bohr"
 uuid="7980ab20-23d2-11e8-7522-e720ab7fa171"
 xmlns="http://esl.cecam.org/PSML/ns/1.1">
<provenance creator="ONCVPSP-3.3.0+psml-3.3.0-73 (scalar-relativistic)"
 date="2018-03-09">
<annotation action="semilocal-pseudopotential-generation"
 action-cont="projectors-generation" />
<input-file name="oncvpsp-input">
<![CDATA[# atsym z nc nv iexc psfile
V 23 3 4 -001012 upf
# n l f
1 0 2.0
2 0 2.0
2 1 6.0
3 0 2.0
3 1 6.0
3 2 3.0
4 0 2.0
# lmax
2
# l rc ep ncon nbas qcut
0 1.3 0.0 4 8 9.0
1 1.3 0.0 4 7 9.0
2 1.65 0.0 4 8 9.0
# lloc lpopt rc5 dvloc0
4 5 1.2 0.0
# l nproj debl
0 2 1.0
1 2 1.5
2 2 1.5
# icmod fcfact rcfact
3 5.0 1.3
# epsh1 epsh2 depsh
-12.0 12.0 0.02
# rlmax drl
6.0 0.01
 0
]]>
</input-file>
</provenance>
<pseudo-atom-spec atomic-label="V" atomic-number="23" z-pseudo="13"
 flavor="Hamann&apos;s oncvpsp" relativity="scalar" spin-dft="no"
 core-corrections="yes">
<annotation pseudo-energy="-71.2086382215" />
<exchange-correlation>
<annotation oncvpsp-xc-code="-1012" oncvpsp-xc-type="libxc-interface" />
<libxc-info number-of-functionals="2">
<functional name="Slater exchange (LDA)" type="exchange" id="1" />
<functional name="Perdew &amp; Wang (LDA)" type="correlation" id="12" />
</libxc-info>
</exchange-correlation>
<valence-configuration total-valence-charge="13">
<shell n="3" l="s" occupation="2" />
<shell n="3" l="p" occupation="6" />
<shell n="3" l="d" occupation="3" />
<shell n="4" l="s" occupation="2" />
</valence-configuration>
</pseudo-atom-spec>
<grid npts="458">
<annotation type="sampled from oncvpsp log grid"
 recipe="r(i:1..N) = r1*exp(a*(i-1)) + r=0; resampled"
 recipe-cont="r1: scale; a: step" scale="0.217391304348E-04"
 step="0.119285708653E-01" delta="0.500000000000E-02" rmax="44.3717337047" />
<grid-data>
  0.000000000000E+00  5.006749579795E-03  1.012059644248E-02  1.518250849851E-02
  2.021509715797E-02  2.535744957628E-02  3.068977967623E-02  3.583772504718E-02
  4.086260699098E-02  4.603956332018E-02  5.125730973400E-02  5.638971612822E-02
  6.203603157331E-02  6.743845247288E-02  7.244203985812E-02  7.781686777164E-02
  8.359048035711E-02  8.872773260121E-02  9.418070692882E-02  9.996880679323E-02
  1.061126281332E-01  1.112984512452E-01  1.167377103696E-01  1.224427911608E-01
  1.284266845717E-01  1.347030164349E-01  1.412860784904E-01  1.464336570443E-01
  1.517687810751E-01  1.572982835637E-01  1.630292464419E-01  1.689690096628E-01
  1.751251806013E-01  1.815056437973E-01  1.881185710538E-01  1.949724319034E-01
  2.020760044548E-01  2.094383866365E-01  2.144950670434E-01  2.196738359421E-01
  2.249776410371E-01  2.304095012023E-01  2.359725081993E-01  2.416698284373E-01
  2.475047047751E-01  2.534804583672E-01  2.596004905540E-01  2.658682847979E-01
  2.722874086661E-01  2.788615158609E-01  2.855943482999E-01  2.924897382452E-01
  2.995516104854E-01  3.067839845690E-01  3.141909770924E-01  3.217768040433E-01
  3.295457832001E-01  3.375023365897E-01  3.456509930043E-01  3.539963905794E-01
  3.625432794336E-01  3.712965243722E-01  3.802611076567E-01  3.894421318399E-01
  3.988448226711E-01  4.084745320697E-01  4.183367411719E-01  4.233567820660E-01
  4.284370634508E-01  4.335783082122E-01  4.387812479108E-01  4.440466228857E-01
  4.493751823603E-01  4.547676845486E-01  4.602248967632E-01  4.657475955244E-01
  4.713365666707E-01  4.769926054707E-01  4.827165167364E-01  4.885091149372E-01
  4.943712243165E-01  5.003036790082E-01  5.063073231563E-01  5.123830110342E-01
  5.185316071666E-01  5.247539864526E-01  5.310510342901E-01  5.374236467015E-01
  5.438727304620E-01  5.503992032275E-01  5.570039936662E-01  5.636880415902E-01
  5.704522980893E-01  5.772977256664E-01  5.842252983744E-01  5.912360019549E-01
  5.983308339783E-01  6.055108039861E-01  6.127769336339E-01  6.201302568375E-01
  6.275718199196E-01  6.351026817586E-01  6.427239139397E-01  6.504366009070E-01
  6.582418401179E-01  6.661407421993E-01  6.741344311057E-01  6.822240442789E-01
  6.904107328103E-01  6.986956616040E-01  7.070800095433E-01  7.155649696578E-01
  7.241517492937E-01  7.328415702852E-01  7.416356691286E-01  7.505352971582E-01
  7.595417207241E-01  7.686562213727E-01  7.778800960292E-01  7.872146571816E-01
  7.966612330677E-01  8.062211678646E-01  8.158958218789E-01  8.256865717415E-01
  8.355948106024E-01  8.456219483296E-01  8.557694117096E-01  8.660386446501E-01
  8.764311083859E-01  8.869482816865E-01  8.975916610667E-01  9.083627609995E-01
  9.192631141315E-01  9.302942715011E-01  9.414578027591E-01  9.527552963922E-01
  9.641883599490E-01  9.757586202683E-01  9.874677237116E-01  9.993173363961E-01
  1.011309144433E+00  1.023444854166E+00  1.035726192416E+00  1.048154906725E+00
  1.060732765606E+00  1.073461558793E+00  1.086343097499E+00  1.099379214668E+00
  1.112571765245E+00  1.125922626427E+00  1.139433697945E+00  1.153106902320E+00
  1.166944185148E+00  1.180947515370E+00  1.195118885554E+00  1.209460312181E+00
  1.223973835927E+00  1.238661521958E+00  1.253525460221E+00  1.268567765744E+00
  1.283790578933E+00  1.299196065880E+00  1.314786418671E+00  1.330563855695E+00
  1.346530621963E+00  1.362688989427E+00  1.379041257300E+00  1.395589752387E+00
  1.412336829416E+00  1.429284871369E+00  1.446436289825E+00  1.463793525303E+00
  1.481359047607E+00  1.499135356178E+00  1.517124980452E+00  1.535330480218E+00
  1.553754445980E+00  1.572399499332E+00  1.591268293324E+00  1.610363512844E+00
  1.629687874998E+00  1.649244129498E+00  1.669035059052E+00  1.689063479761E+00
  1.709332241518E+00  1.729844228416E+00  1.750602359157E+00  1.771609587467E+00
  1.792868902517E+00  1.814383329347E+00  1.836155929299E+00  1.858189800451E+00
  1.880488078056E+00  1.903053934993E+00  1.925890582213E+00  1.949001269199E+00
  1.972389284430E+00  1.996057955843E+00  2.020010651313E+00  2.044250779129E+00
  2.068781788478E+00  2.093607169940E+00  2.118730455979E+00  2.144155221451E+00
  2.169885084108E+00  2.195923705118E+00  2.222274789579E+00  2.248942087054E+00
  2.275929392099E+00  2.303240544804E+00  2.330879431341E+00  2.358849984518E+00
  2.387156184332E+00  2.415802058544E+00  2.444791683246E+00  2.474129183445E+00
  2.503818733647E+00  2.533864558450E+00  2.564270933152E+00  2.595042184350E+00
  2.626182690562E+00  2.657696882848E+00  2.689589245443E+00  2.721864316388E+00
  2.754526688185E+00  2.787581008443E+00  2.821031980544E+00  2.854884364311E+00
  2.889142976682E+00  2.923812692403E+00  2.958898444711E+00  2.994405226048E+00
  3.030338088761E+00  3.066702145826E+00  3.103502571576E+00  3.140744602434E+00
  3.178433537664E+00  3.216574740116E+00  3.255173636997E+00  3.294235720641E+00
  3.333766549289E+00  3.373771747880E+00  3.414257008855E+00  3.455228092961E+00
  3.496690830077E+00  3.538651120037E+00  3.581114933478E+00  3.624088312680E+00
  3.667577372432E+00  3.711588300901E+00  3.756127360512E+00  3.801200888838E+00
  3.846815299504E+00  3.892977083098E+00  3.939692808095E+00  3.986969121792E+00
  4.034812751254E+00  4.083230504269E+00  4.132229270320E+00  4.181816021564E+00
  4.231997813823E+00  4.282781787589E+00  4.334175169040E+00  4.386185271068E+00
  4.438819494321E+00  4.492085328253E+00  4.545990352192E+00  4.600542236418E+00
  4.655748743255E+00  4.711617728174E+00  4.768157140912E+00  4.825375026603E+00
  4.883279526922E+00  4.941878881246E+00  5.001181427821E+00  5.061195604954E+00
  5.121929952214E+00  5.183393111640E+00  5.245593828980E+00  5.308540954928E+00
  5.372243446387E+00  5.436710367744E+00  5.501950892157E+00  5.567974302862E+00
  5.634789994497E+00  5.702407474431E+00  5.770836364124E+00  5.840086400493E+00
  5.910167437299E+00  5.981089446547E+00  6.052862519905E+00  6.125496870144E+00
  6.199002832586E+00  6.273390866577E+00  6.348671556976E+00  6.424855615660E+00
  6.501953883048E+00  6.579977329644E+00  6.658937057600E+00  6.738844302291E+00
  6.819710433919E+00  6.901546959126E+00  6.984365522635E+00  7.068177908907E+00
  7.152996043814E+00  7.238831996339E+00  7.325697980295E+00  7.413606356059E+00
  7.502569632332E+00  7.592600467920E+00  7.683711673535E+00  7.775916213617E+00
  7.869227208181E+00  7.963657934679E+00  8.059221829895E+00  8.155932491854E+00
  8.253803681756E+00  8.352849325937E+00  8.453083517848E+00  8.554520520062E+00
  8.657174766303E+00  8.761060863499E+00  8.866193593861E+00  8.972587916987E+00
  9.080258971991E+00  9.189222079655E+00  9.299492744611E+00  9.411086657546E+00
  9.524019697437E+00  9.638307933806E+00  9.753967629011E+00  9.871015240560E+00
  9.989467423446E+00  1.010934103253E+01  1.023065312492E+01  1.035342096242E+01
  1.047766201397E+01  1.060339395813E+01  1.073063468563E+01  1.085940230186E+01
  1.098971512948E+01  1.112159171103E+01  1.125505081157E+01  1.139011142131E+01
  1.152679275836E+01  1.166511427146E+01  1.180509564272E+01  1.194675679043E+01
  1.209011787192E+01  1.223519928638E+01  1.238202167782E+01  1.253060593795E+01
  1.268097320921E+01  1.283314488772E+01  1.298714262637E+01  1.314298833789E+01
  1.330070419794E+01  1.346031264832E+01  1.362183640010E+01  1.378529843690E+01
  1.395072201814E+01  1.411813068236E+01  1.428754825055E+01  1.445899882955E+01
  1.463250681551E+01  1.480809689729E+01  1.498579406006E+01  1.516562358878E+01
  1.534761107185E+01  1.553178240471E+01  1.571816379356E+01  1.590678175909E+01
  1.609766314020E+01  1.629083509788E+01  1.648632511905E+01  1.668416102048E+01
  1.688437095273E+01  1.708698340416E+01  1.729202720501E+01  1.749953153147E+01
  1.770952590985E+01  1.792204022077E+01  1.813710470342E+01  1.835474995986E+01
  1.857500695938E+01  1.879790704289E+01  1.902348192740E+01  1.925176371053E+01
  1.948278487506E+01  1.971657829356E+01  1.995317723308E+01  2.019261535988E+01
  2.043492674420E+01  2.068014586513E+01  2.092830761551E+01  2.117944730689E+01
  2.143360067458E+01  2.169080388267E+01  2.195109352926E+01  2.221450665162E+01
  2.248108073143E+01  2.275085370021E+01  2.302386394461E+01  2.330015031195E+01
  2.357975211569E+01  2.386270914108E+01  2.414906165077E+01  2.443885039058E+01
  2.473211659527E+01  2.502890199441E+01  2.532924881835E+01  2.563319980417E+01
  2.594079820182E+01  2.625208778024E+01  2.656711283360E+01  2.688591818760E+01
  2.720854920586E+01  2.753505179633E+01  2.786547241788E+01  2.819985808690E+01
  2.853825638394E+01  2.888071546055E+01  2.922728404607E+01  2.957801145463E+01
  2.993294759208E+01  3.029214296319E+01  3.065564867875E+01  3.102351646289E+01
  3.139579866044E+01  3.177254824437E+01  3.215381882330E+01  3.253966464918E+01
  3.293014062497E+01  3.332530231247E+01  3.372520594022E+01  3.412990841150E+01
  3.453946731244E+01  3.495394092019E+01  3.537338821123E+01  3.579786886977E+01
  3.622744329621E+01  3.666217261576E+01  3.710211868715E+01  3.754734411140E+01
  3.799791224073E+01  3.845388718762E+01  3.891533383387E+01  3.938231783988E+01
  3.985490565396E+01  4.033316452181E+01  4.081716249607E+01  4.130696844602E+01
  4.180265206737E+01  4.230428389218E+01  4.281193529889E+01  4.332567852247E+01
  4.384558666474E+01  4.437173370472E+01
</grid-data>
</grid>
<valence-charge total-charge="13" is-unscreening-charge="yes"
 rescaled-to-z-pseudo="no">
<radfunc>
<data npts="458">
  2.803834146689E+00  2.806930857752E+00  2.816485358372E+00  2.832297967425E+00
  2.854276996272E+00  2.883166613320E+00  2.919968801922E+00  2.962086703741E+00
  3.009413375132E+00  3.064562998280E+00  3.126673270477E+00  3.194119158569E+00
  3.275542371717E+00  3.360475977849E+00  3.445215215511E+00  3.542689233348E+00
  3.654756631343E+00  3.760808764963E+00  3.879825685180E+00  4.013323488267E+00
  4.162976519207E+00  4.295563682326E+00  4.440692864194E+00  4.599466604272E+00
  4.773065989768E+00  4.962751968475E+00  5.169865471018E+00  5.337488441069E+00
  5.516338093941E+00  5.707063699530E+00  5.910335122305E+00  6.126840296809E+00
  6.357281945823E+00  6.602373412341E+00  6.862833459963E+00  7.139379878584E+00
  7.432721713648E+00  7.743549917993E+00  7.960811729314E+00  8.186326420735E+00
  8.420269871672E+00  8.662805445445E+00  8.914081558799E+00  9.174229002238E+00
  9.443357994755E+00  9.721554956722E+00  1.000887898524E+01  1.030535801714E+01
  1.061098466618E+01  1.092571172299E+01  1.124944730885E+01  1.158204967781E+01
  1.192332166591E+01  1.227300479182E+01  1.263077301932E+01  1.299622620054E+01
  1.336888322776E+01  1.374817493303E+01  1.413343678766E+01  1.452390146857E+01
  1.491869137560E+01  1.531681120305E+01  1.571714069009E+01  1.611842769862E+01
  1.651928179253E+01  1.691816852004E+01  1.731340462996E+01  1.750908608753E+01
  1.770315448215E+01  1.789535620178E+01  1.808542794302E+01  1.827309674927E+01
  1.845808008540E+01  1.864008595159E+01  1.881881303970E+01  1.899395093486E+01
  1.916518036576E+01  1.933217350644E+01  1.949459433290E+01  1.965209903758E+01
  1.980433650474E+01  1.995094884970E+01  2.009157202488E+01  2.022583649517E+01
  2.035336798525E+01  2.047378830120E+01  2.058671622814E+01  2.069176850584E+01
  2.078856088335E+01  2.087670925364E+01  2.095583086852E+01  2.102554563362E+01
  2.108547748266E+01  2.113525582955E+01  2.117451709592E+01  2.120290631137E+01
  2.122007878228E+01  2.122570182465E+01  2.121945655507E+01  2.120103973331E+01
  2.117016564855E+01  2.112656804065E+01  2.107000204635E+01  2.100024615959E+01
  2.091710419356E+01  2.082040723161E+01  2.071001555239E+01  2.058582051431E+01
  2.044774638279E+01  2.029575208348E+01  2.012983286341E+01  1.995002184188E+01
  1.975639143197E+01  1.954905461350E+01  1.932816603836E+01  1.909392294866E+01
  1.884656588920E+01  1.858637919590E+01  1.831369124283E+01  1.802887443181E+01
  1.773234490984E+01  1.742456200135E+01  1.710602734467E+01  1.677728372402E+01
  1.643891359149E+01  1.609153727587E+01  1.573581087896E+01  1.537242386295E+01
  1.500209633620E+01  1.462557604865E+01  1.424363511151E+01  1.385706646019E+01
  1.346668008287E+01  1.307329904098E+01  1.267775531146E+01  1.228088548386E+01
  1.188352634828E+01  1.148651041299E+01  1.109066139253E+01  1.069678970862E+01
  1.030568804761E+01  9.918127018344E+00  9.534850954234E+00  9.156573902394E+00
  8.783975841228E+00  8.417699165480E+00  8.058345474961E+00  7.706472699597E+00
  7.362592589387E+00  7.027168593312E+00  6.700614146242E+00  6.383291377664E+00
  6.075510250569E+00  5.777528133336E+00  5.489549801969E+00  5.211727864768E+00
  4.944163596504E+00  4.686908164526E+00  4.439964224814E+00  4.203287862431E+00
  3.976790848538E+00  3.760343184414E+00  3.553775901606E+00  3.356884853942E+00
  3.169437804324E+00  2.991183661662E+00  2.821855107796E+00  2.661171203992E+00
  2.508839944124E+00  2.364560760466E+00  2.228026953328E+00  2.098928035622E+00
  1.976951980264E+00  1.861787358204E+00  1.753125354055E+00  1.650661645161E+00
  1.554098128633E+00  1.463144479573E+00  1.377519522670E+00  1.296952398783E+00
  1.221183508373E+00  1.149965214885E+00  1.083062293647E+00  1.020251641505E+00
  9.613198634731E-01  9.060596592633E-01  8.542701294077E-01  8.057569796911E-01
  7.603327090652E-01  7.178167527745E-01  6.780355834519E-01  6.408227729672E-01
  6.060190178173E-01  5.734721308384E-01  5.430370019918E-01  5.145755309338E-01
  4.879565340277E-01  4.630556283839E-01  4.397550954397E-01  4.179437265007E-01
  3.975166525679E-01  3.783751606745E-01  3.604264988414E-01  3.435836716513E-01
  3.277652283202E-01  3.128950450249E-01  2.989021031251E-01  2.857202647949E-01
  2.732880474582E-01  2.615483983033E-01  2.504484700318E-01  2.399393988871E-01
  2.299760858917E-01  2.205169821206E-01  2.115238787338E-01  2.029617023935E-01
  1.947983166021E-01  1.870043294097E-01  1.795529078583E-01  1.724195994574E-01
  1.655821609143E-01  1.590203942799E-01  1.527159906117E-01  1.466523812043E-01
  1.408145963881E-01  1.351891318557E-01  1.297638224368E-01  1.245277232080E-01
  1.194709977965E-01  1.145848137093E-01  1.098612444990E-01  1.052931785584E-01
  1.008742343211E-01  9.659868163389E-02  9.246136905609E-02  8.845765683475E-02
  8.458335529949E-02  8.083466841835E-02  7.720814225456E-02  7.370061806527E-02
  7.030918978487E-02  6.703116563932E-02  6.386403364190E-02  6.080543072655E-02
  5.785311528079E-02  5.500494284740E-02  5.225884477104E-02  4.961280957444E-02
  4.706486685638E-02  4.461307351264E-02  4.225550208953E-02  3.999023108853E-02
  3.781533704925E-02  3.572888824693E-02  3.372893984926E-02  3.181353038610E-02
  2.998067939410E-02  2.822838610656E-02  2.655462906707E-02  2.495736655315E-02
  2.343453770387E-02  2.198406425412E-02  2.060385278085E-02  1.929179738034E-02
  1.804578269635E-02  1.686368722785E-02  1.574338685048E-02  1.468275849168E-02
  1.367968390491E-02  1.273205349325E-02  1.183777013812E-02  1.099475299279E-02
  1.020094120548E-02  9.454297540223E-03  8.752811868345E-03  8.094504506362E-03
  7.477429380112E-03  6.899676997836E-03  6.359377218114E-03  5.854701801331E-03
  5.383866736029E-03  4.945134333940E-03  4.536815089786E-03  4.157269304035E-03
  3.804908468754E-03  3.478196418463E-03  3.175650249544E-03  2.895841013197E-03
  2.637394188292E-03  2.398989941616E-03  2.179363184077E-03  1.977303432322E-03
  1.791654486000E-03  1.621313931552E-03  1.465232483943E-03  1.322413178143E-03
  1.191910422491E-03  1.072828926224E-03  9.643225135967E-04  8.655928369488E-04
  7.758880010388E-04  6.945011107383E-04  6.207687539452E-04  5.540694312392E-04
  4.938219434105E-04  4.394837475413E-04  3.905492918227E-04  3.465483387439E-04
  3.070442857139E-04  2.716324915679E-04  2.399386167803E-04  2.116169845618E-04
  1.863489693649E-04  1.638414186642E-04  1.438251132253E-04  1.260532704299E-04
  1.103000945950E-04  9.635937760826E-05  8.404315261141E-05  7.318040289769E-05
  6.361582765265E-05  5.520866566168E-05  4.783157763629E-05  4.136958737421E-05
  3.571908156791E-05  3.078686771237E-05  2.648928923643E-05  2.275139669235E-05
  1.950617358461E-05  1.669381520107E-05  1.426105862569E-05  1.216056196058E-05
  1.035033066526E-05  8.793188829422E-06  7.456293131990E-06  6.310687199503E-06
  5.330894061170E-06  4.494544401725E-06  3.782038335963E-06  3.176238467441E-06
  2.662192046485E-06  2.226880107175E-06  1.858991537472E-06  1.548720119128E-06
  1.287582662874E-06  1.068256457818E-06  8.844343507264E-07  7.306958693257E-07
  6.023929029631E-07  4.955485527037E-07  4.067678603241E-07  3.331592209245E-07
  2.722653763142E-07  2.220029754091E-07  1.806097731597E-07  1.465986206784E-07
  1.187174760141E-07  9.591473726454E-08  7.730926735033E-08  6.216454277898E-08
  4.986641713370E-08  3.990404393346E-08  3.185355304158E-08  2.536412011829E-08
  2.014610992971E-08  1.596101143693E-08  1.261291902579E-08  9.941333064574E-09
  7.815115060622E-09  6.127392259964E-09  4.791295908024E-09  3.736409648891E-09
  2.905809425467E-09  2.253604388402E-09  1.742900841740E-09  1.344121195286E-09
  1.020559784910E-09  7.827282277789E-10  5.985648514344E-10  4.563779869348E-10
  3.469259678964E-10  2.629255169738E-10  1.986540485911E-10  1.496289370240E-10
  1.123496588136E-10  8.409113446749E-11  6.273862821183E-11  4.665627064174E-11
  3.458269523591E-11  2.554846757456E-11  1.881097201760E-11  1.380323597220E-11
  1.009384378758E-11  7.355644004628E-12  5.341405022654E-12  3.864942131963E-12
  2.786537624554E-12  2.001717424480E-12  1.432642532577E-12  1.021530056450E-12
  7.256437779672E-13  5.134939729742E-13  3.619653964635E-13  2.541549752175E-13
  1.777500813358E-13  1.238169634191E-13  8.589915583767E-14  5.934922415999E-14
  4.083544873945E-14  2.797913101897E-14  1.908903231262E-14  1.296774115087E-14
  8.771081267429E-15  5.906465829554E-15  3.959725798459E-15  2.642665544166E-15
  1.755640107515E-15  1.160970621078E-15  7.641442721219E-16  5.005800619509E-16
  3.263556583010E-16  2.117401512432E-16  1.367050379774E-16  8.782324870020E-17
  5.613739968170E-17  3.570152152030E-17  2.258844340071E-17  1.421753198562E-17
  8.901707398271E-18  5.543781923795E-18  3.433957237758E-18  2.115492116256E-18
  1.296066381669E-18  7.896116802892E-19  4.783449521131E-19  2.881247834040E-19
  1.725448282804E-19  1.027247149883E-19  6.079515978971E-20  3.576458148895E-20
  2.091202177264E-20  1.215250750357E-20  7.018279465562E-21  4.027706308912E-21
  2.296753609386E-21  1.301269309307E-21  7.324574683295E-22  4.095679181548E-22
  2.274904345928E-22  1.255043993300E-22  6.876661006559E-23  3.741826161321E-23
  0.000000000000E+00  0.000000000000E+00  0.000000000000E+00  0.000000000000E+00
  0.000000000000E+00  0.000000000000E+00
</data>
</radfunc>
</valence-charge>
<pseudocore-charge matching-radius="0.500303679008"
 number-of-continuous-derivatives="4">
<annotation model-charge-form="Teter function with specified parameters" />
<radfunc>
<data npts="291">
  1.061368833250E+02  1.061170132054E+02  1.060557155813E+02  1.059542988607E+02
  1.058133955025E+02  1.056283005517E+02  1.053926922618E+02  1.051233031044E+02
  1.048209169183E+02  1.044689722089E+02  1.040731542062E+02  1.036439886956E+02
  1.031267918295E+02  1.025883536146E+02  1.020522208081E+02  1.014368401260E+02
  1.007310732108E+02  1.000649045549E+02  9.931927961887E+01  9.848542216453E+01
  9.755377433645E+01  9.673111422676E+01  9.583358363265E+01  9.485518922008E+01
  9.378962988951E+01  9.263031990614E+01  9.137042335737E+01  9.035526311733E+01
  8.927654335967E+01  8.813121564493E+01  8.691622963813E+01  8.562856032086E+01
  8.426523989687E+01  8.282339483943E+01  8.130028851904E+01  7.969336982486E+01
  7.800032814694E+01  7.621915501473E+01  7.498191804774E+01  7.370439598811E+01
  7.238630902419E+01  7.102748725430E+01  6.962788249125E+01  6.818758057438E+01
  6.670681413327E+01  6.518597573191E+01  6.362563130412E+01  6.202653377142E+01
  6.038963671315E+01  5.871610793498E+01  5.700734275694E+01  5.526497681516E+01
  5.349089814359E+01  5.168725827280E+01  4.985648205381E+01  4.800127588544E+01
  4.612463399594E+01  4.422984240345E+01  4.232048015728E+01  4.040041744359E+01
  3.847381012764E+01  3.654509030034E+01  3.461895240336E+01  3.270033452496E+01
  3.079439449129E+01  2.890648042698E+01  2.704209552669E+01  2.612047865104E+01
  2.520685686830E+01  2.430194236280E+01  2.340644820976E+01  2.252108657823E+01
  2.164656684719E+01  2.078359363866E+01  1.993286477214E+01  1.909506914573E+01
  1.827088455025E+01  1.746097542324E+01  1.666599055128E+01  1.588656072938E+01
  1.512329638777E+01  1.437678519695E+01  1.364758966322E+01  1.293624472764E+01
  1.224325538253E+01  1.156909432037E+01  1.091419963089E+01  1.027897256309E+01
  9.663775369387E+00  9.068929249921E+00  8.494712415471E+00  7.941358287834E+00
  7.409053856695E+00  6.897938212130E+00  6.408101271683E+00  5.939582720635E+00
  5.492371183515E+00  5.066403644068E+00  4.661565129842E+00  4.277688676214E+00
  3.914555583064E+00  3.571895975426E+00  3.249389677253E+00  2.946667404992E+00
  2.663312284936E+00  2.398861695311E+00  2.152809430841E+00  1.924608184071E+00
  1.713672334066E+00  1.519381029339E+00  1.341081547916E+00  1.178092913514E+00
  1.029709742831E+00  8.952062950377E-01  7.738406908246E-01  6.648592647737E-01
  5.675010115709E-01  4.810020836732E-01  4.046002955909E-01  3.375395880339E-01
  2.790744038581E-01  2.284739271320E-01  1.850261367693E-01  1.480416271111E-01
  1.168571496290E-01  9.083883259257E-02  6.938503909952E-02  5.192882831675E-02
  3.793999007116E-02  2.692662902446E-02  1.843628147585E-02  1.205655526005E-02
  7.415291114005E-03  4.180252120243E-03  2.058356221675E-03  7.944751472983E-04
  1.698311804084E-04  3.082209708862E-08  1.327813301423E-04  4.453421284243E-04
  8.417679776444E-04  1.250004387296E-03  1.618897872911E-03  1.915184199888E-03
  2.120516628771E-03  2.228593361648E-03  2.242438917522E-03  2.171888129548E-03
  2.031314014628E-03  1.837632133248E-03  1.608604508849E-03  1.361456035499E-03
  1.111805933543E-03  8.729066046260E-04  6.551725888030E-04  4.659736281276E-04
  3.096584553573E-04  1.877701679360E-04  9.941016355885E-05  4.170576775949E-05
  1.033694150996E-05  7.977620513496E-08  5.328712548125E-06  2.056529935918E-05
  4.074848168543E-05  6.160943855012E-05  7.984238733824E-05  9.319101628246E-05
  1.004377886047E-04  1.013098145977E-04  9.631992222882E-05  8.656469260175E-05
  7.350241717366E-05  5.873318100064E-05  4.380073495245E-05  3.003178769382E-05
  1.842324444812E-05  9.582250251660E-06  3.718209357829E-06  6.807905047224E-07
  3.377044997621E-08  1.151786953604E-06  3.325889957473E-06  5.864244549188E-06
  8.176318350633E-06  9.832077693351E-06  1.059168466337E-05  1.040541004981E-05
  9.387414058744E-06  7.770204022579E-06  5.848575834152E-06  3.922468017701E-06
  2.247384704988E-06  9.990567778321E-07  2.561642333767E-07  1.714703323549E-09
  0.000000000000E+00  0.000000000000E+00  0.000000000000E+00  0.000000000000E+00
  0.000000000000E+00  0.000000000000E+00  0.000000000000E+00  0.000000000000E+00
  0.000000000000E+00  0.000000000000E+00  0.000000000000E+00  0.000000000000E+00
  0.000000000000E+00  0.000000000000E+00  0.000000000000E+00  0.000000000000E+00
  0.000000000000E+00  0.000000000000E+00  0.000000000000E+00  0.000000000000E+00
  0.000000000000E+00  0.000000000000E+00  0.000000000000E+00  0.000000000000E+00
  0.000000000000E+00  0.000000000000E+00  0.000000000000E+00  0.000000000000E+00
  0.000000000000E+00  0.000000000000E+00  0.000000000000E+00  0.000000000000E+00
  0.000000000000E+00  0.000000000000E+00  0.000000000000E+00  0.000000000000E+00
  0.000000000000E+00  0.000000000000E+00  0.000000000000E+00  0.000000000000E+00
  0.000000000000E+00  0.000000000000E+00  0.000000000000E+00  0.000000000000E+00
  0.000000000000E+00  0.000000000000E+00  0.000000000000E+00  0.000000000000E+00
  0.000000000000E+00  0.000000000000E+00  0.000000000000E+00  0.000000000000E+00
  0.000000000000E+00  0.000000000000E+00  0.000000000000E+00  0.000000000000E+00
  0.000000000000E+00  0.000000000000E+00  0.000000000000E+00  0.000000000000E+00
  0.000000000000E+00  0.000000000000E+00  0.000000000000E+00  0.000000000000E+00
  0.000000000000E+00  0.000000000000E+00  0.000000000000E+00  0.000000000000E+00
  0.000000000000E+00  0.000000000000E+00  0.000000000000E+00  0.000000000000E+00
  0.000000000000E+00  0.000000000000E+00  0.000000000000E+00  0.000000000000E+00
  0.000000000000E+00  0.000000000000E+00  0.000000000000E+00  0.000000000000E+00
  0.000000000000E+00  0.000000000000E+00  0.000000000000E+00  0.000000000000E+00
  0.000000000000E+00  0.000000000000E+00  0.000000000000E+00  0.000000000000E+00
  0.000000000000E+00  0.000000000000E+00  0.000000000000E+00  0.000000000000E+00
  0.000000000000E+00  0.000000000000E+00  0.000000000000E+00
</data>
</radfunc>
</pseudocore-charge>
<semilocal-potentials set="scalar_relativistic">
<slps n="3" l="s" rc="1.31478641867" eref="-2.56627882684">
<radfunc>
<data npts="291">
 -5.014311208244E+00 -5.016695674960E+00 -5.024050121618E+00 -5.036214698728E+00
 -5.053108790948E+00 -5.075289465142E+00 -5.103503823440E+00 -5.135736745285E+00
 -5.171883957048E+00 -5.213910445525E+00 -5.261118416277E+00 -5.312235149940E+00
 -5.373742881563E+00 -5.437668027175E+00 -5.501209976320E+00 -5.574010550081E+00
 -5.657329286263E+00 -5.735803445783E+00 -5.823443570988E+00 -5.921214081704E+00
 -6.030153505199E+00 -6.126090919258E+00 -6.230486839705E+00 -6.343967840045E+00
 -6.467183231473E+00 -6.600800771992E+00 -6.745501070584E+00 -6.861712269562E+00
 -6.984832579465E+00 -7.115147542918E+00 -7.252936502091E+00 -7.398469392693E+00
 -7.552003136299E+00 -7.713777614391E+00 -7.884011212131E+00 -8.062895925550E+00
 -8.250592032776E+00 -8.447222337947E+00 -8.583313736028E+00 -8.723423449208E+00
 -8.867552013908E+00 -9.015688230375E+00 -9.167808210510E+00 -9.323874405548E+00
 -9.483834617912E+00 -9.647621002067E+00 -9.815149059676E+00 -9.986316634836E+00
 -1.016100291566E+01 -1.033906744892E+01 -1.052034917490E+01 -1.070466549006E+01
 -1.089181134554E+01 -1.108155838999E+01 -1.127365416561E+01 -1.146782136688E+01
 -1.166375717190E+01 -1.186113265689E+01 -1.205959230526E+01 -1.225875362329E+01
 -1.245820687567E+01 -1.265751495505E+01 -1.285621340144E+01 -1.305381058846E+01
 -1.324978809517E+01 -1.344360128405E+01 -1.363468010706E+01 -1.372900929791E+01
 -1.382243016334E+01 -1.391486481689E+01 -1.400623403301E+01 -1.409645730563E+01
 -1.418545291193E+01 -1.427313798154E+01 -1.435942857139E+01 -1.444423974615E+01
 -1.452748566467E+01 -1.460907967215E+01 -1.468893439840E+01 -1.476696186202E+01
 -1.484307358051E+01 -1.491718068621E+01 -1.498919404803E+01 -1.505902439862E+01
 -1.512658246686E+01 -1.519177911532E+01 -1.525452548217E+01 -1.531473312739E+01
 -1.537231418244E+01 -1.542718150297E+01 -1.547924882398E+01 -1.552843091655E+01
 -1.557464374559E+01 -1.561780462771E+01 -1.565783238831E+01 -1.569464751733E+01
 -1.572817232241E+01 -1.575833107895E+01 -1.578505017601E+01 -1.580825825733E+01
 -1.582788635665E+01 -1.584386802658E+01 -1.585613946037E+01 -1.586463960594E+01
 -1.586931027161E+01 -1.587009622313E+01 -1.586694527155E+01 -1.585980835176E+01
 -1.584863959145E+01 -1.583339637046E+01 -1.581403937059E+01 -1.579053261614E+01
 -1.576284350544E+01 -1.573094283405E+01 -1.569480481022E+01 -1.565440706378E+01
 -1.560973064961E+01 -1.556076004731E+01 -1.550748315902E+01 -1.544989130781E+01
 -1.538797923949E+01 -1.532174513133E+01 -1.525119061174E+01 -1.517632079576E+01
 -1.509714434194E+01 -1.501367353718E+01 -1.492592441677E+01 -1.483391692837E+01
 -1.473767514921E+01 -1.463722756716E+01 -1.453260743755E+01 -1.442385322828E+01
 -1.431100916720E+01 -1.419412590630E+01 -1.407326131810E+01 -1.394848144002E+01
 -1.381986158239E+01 -1.368748761563E+01 -1.355145745089E+01 -1.341188272677E+01
 -1.326889071209E+01 -1.312262643115E+01 -1.297325501282E+01 -1.282096425880E+01
 -1.266596741841E+01 -1.250850614789E+01 -1.234885362091E+01 -1.218731774385E+01
 -1.202424441432E+01 -1.186002074491E+01 -1.169507815583E+01 -1.152989522080E+01