<?xml version="1.0" encoding="UTF-8" ?>
<psml version="1.1" energy_unit="hartree" length_unit="bohr"
 uuid="70e02710-23d3-11e8-72ba-ca54367f13e7"
 xmlns="http://esl.cecam.org/PSML/ns/1.1">
<provenance creator="ONCVPSP-3.3.0+psml-3.3.0-73 (scalar-relativistic)"
 date="2018-03-09">
<annotation action="semilocal-pseudopotential-generation"
 action-cont="projectors-generation" />
<input-file name="oncvpsp-input">
<![CDATA[# atsym z nc nv iexc psfile
Xe 54 9 2 -001012 upf
# n l f
1 0 2.0
2 0 2.0
2 1 6.0
3 0 2.0
3 1 6.0
3 2 10.0
4 0 2.0
4 1 6.0
4 2 10.0
5 0 2.0
5 1 6.0
# lmax
2
# l rc ep ncon nbas qcut
0 2.0 0.0 4 7 4.0
1 1.8 0.0 4 8 6.0
2 2.2 0.1 4 7 5.5
# lloc lpopt rc5 dvloc0
4 5 1.8 0.0
# l nproj debl
0 2 4.0
1 2 3.0
2 2 4.0
# icmod fcfact rcfact
3 8.0 1.23
# epsh1 epsh2 depsh
-12.0 12.0 0.02
# rlmax drl
6.0 0.01
 0
]]>
</input-file>
</provenance>
<pseudo-atom-spec atomic-label="Xe" atomic-number="54" z-pseudo="8"
 flavor="Hamann&apos;s oncvpsp" relativity="scalar" spin-dft="no"
 core-corrections="yes">
<annotation pseudo-energy="-15.8228078628" />
<exchange-correlation>
<annotation oncvpsp-xc-code="-1012" oncvpsp-xc-type="libxc-interface" />
<libxc-info number-of-functionals="2">
<functional name="Slater exchange (LDA)" type="exchange" id="1" />
<functional name="Perdew &amp; Wang (LDA)" type="correlation" id="12" />
</libxc-info>
</exchange-correlation>
<valence-configuration total-valence-charge="8">
<shell n="5" l="s" occupation="2" />
<shell n="5" l="p" occupation="6" />
</valence-configuration>
</pseudo-atom-spec>
<grid npts="457">
<annotation type="sampled from oncvpsp log grid"
 recipe="r(i:1..N) = r1*exp(a*(i-1)) + r=0; resampled"
 recipe-cont="r1: scale; a: step" scale="0.925925925926E-05"
 step="0.119285708653E-01" delta="0.500000000000E-02" rmax="44.0815505142" />
<grid-data>
  0.000000000000E+00  5.033694410375E-03  1.005440955457E-02  1.508321761245E-02
  2.032388877205E-02  2.549391579491E-02  3.085494290253E-02  3.603059297763E-02
  4.108251733498E-02  4.628733449663E-02  5.153316126297E-02  5.669318873521E-02
  6.236989096331E-02  6.780138607829E-02  7.283190127614E-02  7.823565490787E-02
  8.404033935153E-02  8.920523875257E-02  9.468755935905E-02  1.005068090479E-01
  1.066836945990E-01  1.118974262617E-01  1.173659578539E-01  1.231017416857E-01
  1.291178386233E-01  1.354279478297E-01  1.420464379586E-01  1.472217192426E-01
  1.525855553172E-01  1.581448159363E-01  1.639066211448E-01  1.698783503969E-01
  1.760676520084E-01  1.824824529513E-01  1.891309690069E-01  1.960217152880E-01
  2.031635171449E-01  2.105655214681E-01  2.156494154184E-01  2.208560549043E-01
  2.261884034939E-01  2.316494963079E-01  2.372424417467E-01  2.429704232603E-01
  2.488367011595E-01  2.548446144723E-01  2.609975828441E-01  2.672991084843E-01
  2.737527781595E-01  2.803622652354E-01  2.871313317672E-01  2.940638306414E-01
  3.011637077684E-01  3.084350043288E-01  3.158818590733E-01  3.235085106788E-01
  3.313193001606E-01  3.393186733437E-01  3.475111833929E-01  3.559014934047E-01
  3.644943790615E-01  3.732947313495E-01  3.823075593432E-01  3.915379930560E-01
  4.009912863604E-01  4.106728199783E-01  4.205881045438E-01  4.256351617983E-01
  4.307427837399E-01  4.359116971448E-01  4.411426375105E-01  4.464363491607E-01
  4.517935853506E-01  4.572151083748E-01  4.627016896753E-01  4.682541099514E-01
  4.738731592708E-01  4.795596371821E-01  4.853143528282E-01  4.911381250622E-01
  4.970317825629E-01  5.029961639537E-01  5.090321179211E-01  5.151405033362E-01
  5.213221893762E-01  5.275780556487E-01  5.339089923165E-01  5.403159002243E-01
  5.467996910270E-01  5.533612873193E-01  5.600016227672E-01  5.667216422404E-01
  5.735223019473E-01  5.804045695706E-01  5.873694244055E-01  5.944178574983E-01
  6.015508717883E-01  6.087694822498E-01  6.160747160368E-01  6.234676126292E-01
  6.309492239808E-01  6.385206146685E-01  6.461828620446E-01  6.539370563891E-01
  6.617843010658E-01  6.697257126786E-01  6.777624212307E-01  6.858955702855E-01
  6.941263171289E-01  7.024558329344E-01  7.108853029296E-01  7.194159265648E-01
  7.280489176836E-01  7.367855046958E-01  7.456269307521E-01  7.545744539212E-01
  7.636293473682E-01  7.727928995366E-01  7.820664143311E-01  7.914512113030E-01
  8.009486258387E-01  8.105600093487E-01  8.202867294609E-01  8.301301702145E-01
  8.400917322570E-01  8.501728330441E-01  8.603749070406E-01  8.706994059251E-01
  8.811477987962E-01  8.917215723818E-01  9.024222312504E-01  9.132512980254E-01
  9.242103136017E-01  9.353008373649E-01  9.465244474133E-01  9.578827407822E-01
  9.693773336716E-01  9.810098616757E-01  9.927819800158E-01  1.004695363776E+00
  1.016751708141E+00  1.028952728639E+00  1.041300161383E+00  1.053795763319E+00
  1.066441312479E+00  1.079238608229E+00  1.092189471528E+00  1.105295745186E+00
  1.118559294128E+00  1.131982005658E+00  1.145565789726E+00  1.159312579202E+00
  1.173224330153E+00  1.187303022115E+00  1.201550658380E+00  1.215969266280E+00
  1.230560897476E+00  1.245327628246E+00  1.260271559784E+00  1.275394818502E+00
  1.290699556324E+00  1.306187951000E+00  1.321862206412E+00  1.337724552889E+00
  1.353777247523E+00  1.370022574494E+00  1.386462845388E+00  1.403100399532E+00
  1.419937604327E+00  1.436976855579E+00  1.454220577846E+00  1.471671224780E+00
  1.489331279477E+00  1.507203254831E+00  1.525289693889E+00  1.543593170215E+00
  1.562116288258E+00  1.580861683717E+00  1.599832023922E+00  1.619030008209E+00
  1.638458368307E+00  1.658119868727E+00  1.678017307152E+00  1.698153514837E+00
  1.718531357016E+00  1.739153733300E+00  1.760023578099E+00  1.781143861036E+00
  1.802517587369E+00  1.824147798417E+00  1.846037571998E+00  1.868190022862E+00
  1.890608303137E+00  1.913295602774E+00  1.936255150008E+00  1.959490211808E+00
  1.983004094349E+00  2.006800143482E+00  2.030881745203E+00  2.055252326146E+00
  2.079915354060E+00  2.104874338308E+00  2.130132830368E+00  2.155694424332E+00
  2.181562757424E+00  2.207741510513E+00  2.234234408640E+00  2.261045221543E+00
  2.288177764202E+00  2.315635897372E+00  2.343423528141E+00  2.371544610478E+00
  2.400003145804E+00  2.428803183554E+00  2.457948821756E+00  2.487444207618E+00
  2.517293538109E+00  2.547501060566E+00  2.578071073293E+00  2.609007926173E+00
  2.640316021287E+00  2.671999813542E+00  2.704063811305E+00  2.736512577040E+00
  2.769350727965E+00  2.802582936700E+00  2.836213931941E+00  2.870248499124E+00
  2.904691481113E+00  2.939547778887E+00  2.974822352233E+00  3.010520220460E+00
  3.046646463106E+00  3.083206220663E+00  3.120204695311E+00  3.157647151655E+00
  3.195538917475E+00  3.233885384484E+00  3.272692009098E+00  3.311964313207E+00
  3.351707884966E+00  3.391928379585E+00  3.432631520140E+00  3.473823098382E+00
  3.515508975563E+00  3.557695083269E+00  3.600387424269E+00  3.643592073360E+00
  3.687315178240E+00  3.731562960379E+00  3.776341715904E+00  3.821657816494E+00
  3.867517710292E+00  3.913927922816E+00  3.960895057890E+00  4.008425798584E+00
  4.056526908167E+00  4.105205231065E+00  4.154467693838E+00  4.204321306164E+00
  4.254773161838E+00  4.305830439780E+00  4.357500405058E+00  4.409790409918E+00
  4.462707894837E+00  4.516260389575E+00  4.570455514250E+00  4.625300980421E+00
  4.680804592186E+00  4.736974247293E+00  4.793817938260E+00  4.851343753519E+00
  4.909559878561E+00  4.968474597104E+00  5.028096292269E+00  5.088433447777E+00
  5.149494649150E+00  5.211288584940E+00  5.273824047959E+00  5.337109936535E+00
  5.401155255773E+00  5.465969118842E+00  5.531560748268E+00  5.597939477248E+00
  5.665114750975E+00  5.733096127986E+00  5.801893281522E+00  5.871516000900E+00
  5.941974192911E+00  6.013277883226E+00  6.085437217825E+00  6.158462464439E+00
  6.232364014012E+00  6.307152382180E+00  6.382838210766E+00  6.459432269296E+00
  6.536945456527E+00  6.615388802005E+00  6.694773467629E+00  6.775110749241E+00
  6.856412078232E+00  6.938689023171E+00  7.021953291449E+00  7.106216730946E+00
  7.191491331717E+00  7.277789227698E+00  7.365122698430E+00  7.453504170812E+00
  7.542946220861E+00  7.633461575512E+00  7.725063114418E+00  7.817763871791E+00
  7.911577038252E+00  8.006515962711E+00  8.102594154264E+00  8.199825284115E+00
  8.298223187524E+00  8.397801865775E+00  8.498575488164E+00  8.600558394022E+00
  8.703765094750E+00  8.808210275887E+00  8.913908799198E+00  9.020875704788E+00
  9.129126213246E+00  9.238675727805E+00  9.349539836538E+00  9.461734314577E+00
  9.575275126352E+00  9.690178427868E+00  9.806460569002E+00  9.924138095830E+00
  1.004322775298E+01  1.016374648602E+01  1.028571144385E+01  1.040913998117E+01
  1.053404966095E+01  1.066045825688E+01  1.078838375596E+01  1.091784436103E+01
  1.104885849337E+01  1.118144479529E+01  1.131562213283E+01  1.145140959842E+01
  1.158882651361E+01  1.172789243177E+01  1.186862714095E+01  1.201105066664E+01
  1.215518327464E+01  1.230104547394E+01  1.244865801962E+01  1.259804191586E+01
  1.274921841885E+01  1.290220903988E+01  1.305703554835E+01  1.321371997493E+01
  1.337228461463E+01  1.353275203001E+01  1.369514505437E+01  1.385948679502E+01
  1.402580063656E+01  1.419411024420E+01  1.436443956713E+01  1.453681284194E+01
  1.471125459604E+01  1.488778965119E+01  1.506644312701E+01  1.524724044453E+01
  1.543020732987E+01  1.561536981782E+01  1.580275425564E+01  1.599238730671E+01
  1.618429595439E+01  1.637850750584E+01  1.657504959591E+01  1.677395019106E+01
  1.697523759335E+01  1.717894044447E+01  1.738508772981E+01  1.759370878256E+01
  1.780483328795E+01  1.801849128741E+01  1.823471318286E+01  1.845352974105E+01
  1.867497209795E+01  1.889907176312E+01  1.912586062428E+01  1.935537095177E+01
  1.958763540319E+01  1.982268702803E+01  2.006055927237E+01  2.030128598363E+01
  2.054490141544E+01  2.079144023242E+01  2.104093751521E+01  2.129342876539E+01
  2.154894991058E+01  2.180753730951E+01  2.206922775722E+01  2.233405849031E+01
  2.260206719219E+01  2.287329199850E+01  2.314777150248E+01  2.342554476051E+01
  2.370665129764E+01  2.399113111321E+01  2.427902468657E+01  2.457037298280E+01
  2.486521745860E+01  2.516360006810E+01  2.546556326892E+01  2.577115002815E+01
  2.608040382848E+01  2.639336867442E+01  2.671008909852E+01  2.703061016770E+01
  2.735497748971E+01  2.768323721959E+01  2.801543606622E+01  2.835162129902E+01
  2.869184075461E+01  2.903614284366E+01  2.938457655779E+01  2.973719147648E+01
  3.009403777420E+01  3.045516622749E+01  3.082062822222E+01  3.119047576088E+01
  3.156476147001E+01  3.194353860765E+01  3.232686107095E+01  3.271478340380E+01
  3.310736080464E+01  3.350464913430E+01  3.390670492391E+01  3.431358538300E+01
  3.472534840759E+01  3.514205258849E+01  3.556375721955E+01  3.599052230618E+01
  3.642240857386E+01  3.685947747674E+01  3.730179120646E+01  3.774941270094E+01
  3.820240565335E+01  3.866083452119E+01  3.912476453545E+01  3.959426170987E+01
  4.006939285039E+01  4.055022556459E+01  4.103682827137E+01  4.152927021063E+01
  4.202762145315E+01  4.253195291059E+01  4.304233634552E+01  4.355884438166E+01
  4.408155051424E+01
</grid-data>
</grid>
<valence-charge total-charge="8" is-unscreening-charge="yes"
 rescaled-to-z-pseudo="no">
<radfunc>
<data npts="457">
  1.212204983967E-02  1.213190928414E-02  1.216140160753E-02  1.221066891395E-02
  1.228310526827E-02  1.237578075356E-02  1.249430019741E-02  1.263057424477E-02
  1.278451349543E-02  1.296498645802E-02  1.316964551980E-02  1.339358293535E-02
  1.366629524428E-02  1.395354003335E-02  1.424296949144E-02  1.457942987051E-02
  1.497097294332E-02  1.534617704937E-02  1.577271400729E-02  1.625809044495E-02
  1.681102581217E-02  1.730878459537E-02  1.786221335524E-02  1.847807575208E-02
  1.916405098928E-02  1.992887179276E-02  2.078248473501E-02  2.148773150450E-02
  2.225464585679E-02  2.308916952348E-02  2.399787884159E-02  2.498805789272E-02
  2.606778023913E-02  2.724600020119E-02  2.853265470131E-02  2.993877678034E-02
  3.147662197217E-02  3.315980879889E-02  3.437008638789E-02  3.565654849458E-02
  3.702444891982E-02  3.847942644057E-02  4.002753300312E-02  4.167526377944E-02
  4.342958917191E-02  4.529798884931E-02  4.728848789430E-02  4.940969513799E-02
  5.167084375188E-02  5.408183416033E-02  5.665327932777E-02  5.939655246496E-02
  6.232383718601E-02  6.544818013376E-02  6.878354607502E-02  7.234487544856E-02
  7.614814432825E-02  8.021042674056E-02  8.454995925029E-02  8.918620769999E-02
  9.413993595790E-02  9.943327649429E-02  1.050898025687E-01  1.111346017671E-01
  1.175943505803E-01  1.244973896582E-01  1.318737993094E-01  1.357494124140E-01
  1.397554747361E-01  1.438962689558E-01  1.481762003989E-01  1.525997992611E-01
  1.571717227854E-01  1.618967573859E-01  1.667798207068E-01  1.718259636068E-01
  1.770403720565E-01  1.824283689362E-01  1.879954157187E-01  1.937471140209E-01
  1.996892070060E-01  2.058275806150E-01  2.121682646054E-01  2.187174333699E-01
  2.254814065071E-01  2.324666491122E-01  2.396797717494E-01  2.471275300677E-01
  2.548168240132E-01  2.627546965882E-01  2.709483321001E-01  2.794050538376E-01
  2.881323211051E-01  2.971377255370E-01  3.064289866077E-01  3.160139462424E-01
  3.259005624250E-01  3.360969016900E-01  3.466111303729E-01  3.574515044837E-01
  3.686263580550E-01  3.801440898052E-01  3.920131479425E-01  4.042420129243E-01
  4.168391779707E-01  4.298131271214E-01  4.431723106076E-01  4.569251173020E-01
  4.710798439958E-01  4.856446612416E-01  5.006275754927E-01  5.160363872613E-01
  5.318786450141E-01  5.481615945212E-01  5.648921233779E-01  5.820767004228E-01
  5.997213097901E-01  6.178313793472E-01  6.364117032951E-01  6.554663587382E-01
  6.749986160689E-01  6.950108430603E-01  7.155044026160E-01  7.364795441950E-01
  7.579352890053E-01  7.798693091502E-01  8.022778010109E-01  8.251553532603E-01
  8.484948100282E-01  8.722871298681E-01  8.965212413233E-01  9.211838960413E-01
  9.462595205442E-01  9.717300679306E-01  9.975748709492E-01  1.023770498056E+00
  1.050290614228E+00  1.077105848461E+00  1.104183670035E+00  1.131488275746E+00
  1.158980490413E+00  1.186617683073E+00  1.214353701289E+00  1.242138826049E+00
  1.269919749695E+00  1.297639579248E+00  1.325237867403E+00  1.352650673286E+00
  1.379810654870E+00  1.406647194695E+00  1.433086560217E+00  1.459052099801E+00
  1.484464474967E+00  1.509241929121E+00  1.533300592568E+00  1.556554823201E+00
  1.578917581813E+00  1.600300840618E+00  1.620616023157E+00  1.639774473491E+00
  1.657687952267E+00  1.674269157086E+00  1.689432264430E+00  1.703093490374E+00
  1.715171667312E+00  1.725588833986E+00  1.734270836261E+00  1.741147936216E+00
  1.746155427296E+00  1.749234253396E+00  1.750331629816E+00  1.749401663986E+00
  1.746405973653E+00  1.741314299848E+00  1.734105111298E+00  1.724766196061E+00
  1.713295234939E+00  1.699700349741E+00  1.684000617649E+00  1.666226540955E+00
  1.646420459227E+00  1.624636888778E+00  1.600942772230E+00  1.575417619229E+00
  1.548153518178E+00  1.519254998527E+00  1.488838723866E+00  1.457032998155E+00
  1.423977071004E+00  1.389819456447E+00  1.354712817401E+00  1.318806951562E+00
  1.282246610899E+00  1.245171500311E+00  1.207714862172E+00  1.170002786461E+00
  1.132153597178E+00  1.094277424415E+00  1.056476148980E+00  1.018844287508E+00
  9.814703604285E-01  9.444370903521E-01  9.078211300516E-01  8.716932023130E-01
  8.361181324205E-01  8.011549312161E-01  7.668569024022E-01  7.332717735405E-01
  7.004418482237E-01  6.684041769368E-01  6.371907439881E-01  6.068286684575E-01
  5.773404165268E-01  5.487440231558E-01  5.210533209742E-01  4.942781744061E-01
  4.684247171707E-01  4.434955914246E-01  4.194901869466E-01  3.964048788973E-01
  3.742332628171E-01  3.529663856639E-01  3.325929718160E-01  3.130996431004E-01
  2.944711320250E-01  2.766904875154E-01  2.597392725919E-01  2.435977533991E-01
  2.282450794362E-01  2.136594544763E-01  1.998182981001E-01  1.866983977078E-01
  1.742760509718E-01  1.625271987594E-01  1.514275486172E-01  1.409526889583E-01
  1.310781941461E-01  1.217797207055E-01  1.130330949288E-01  1.048143921734E-01
  9.710000817225E-02  8.986672269825E-02  8.309175593703E-02  7.675281793538E-02
  7.082815149826E-02  6.529656891142E-02  6.013748286721E-02  5.533093196880E-02
  5.085760118382E-02  4.669883761144E-02  4.283666191888E-02  3.925377579299E-02
  3.593356574185E-02  3.286010356868E-02  3.001814382765E-02  2.739311855745E-02
  2.497112957430E-02  2.273893859201E-02  2.068395542182E-02  1.879422449057E-02
  1.705840990119E-02  1.546577924513E-02  1.400618636264E-02  1.267005323271E-02
  1.144835116172E-02  1.033258142644E-02  9.314755514979E-03  8.387375097125E-03
  7.543411844232E-03  6.776287207730E-03  6.079852255081E-03  5.448367652016E-03
  4.876483870604E-03  4.359221693825E-03  3.891953079023E-03  3.470382434759E-03
  3.090528358289E-03  2.748705873990E-03  2.441509206693E-03  2.165795117911E-03
  1.918666827438E-03  1.697458537704E-03  1.499720573533E-03  1.323205145684E-03
  1.165852742551E-03  1.025779150839E-03  9.012631027527E-04  7.907345442902E-04
  6.927635166210E-04  6.060496401548E-04  5.294121888649E-04  4.617807406098E-04
  4.021863876463E-04  3.497534901964E-04  3.036919548313E-04  2.632900185297E-04
  2.279075185653E-04  1.969696278449E-04  1.699610349601E-04  1.464205480020E-04
  1.259361011198E-04  1.081401428626E-04  9.270538551806E-05  7.934089493833E-05
  6.778850071742E-05  5.781950703425E-05  4.923168500207E-05  4.184652794908E-05
  3.550675169223E-05  3.007402254473E-05  2.542689651076E-05  2.145895385838E-05
  1.807711401756E-05  1.520011651690E-05  1.275715444366E-05  1.068664768096E-05
  8.935143939553E-06  7.456336352119E-06  6.210187134700E-06  5.162147535892E-06
  4.282464989146E-06  3.545569052885E-06  2.929528365724E-06  2.415571458052E-06
  1.987664845355E-06  1.632142382108E-06  1.337380377428E-06  1.093513464651E-06
  8.921866768885E-07  7.263396096877E-07  5.900189508226E-07  4.782160268201E-07
  3.867263569778E-07  3.120285195157E-07  2.511799222934E-07  2.017273335202E-07
  1.616302674177E-07  1.291955372512E-07  1.030214849156E-07  8.195057373748E-08
  6.502919071703E-08  5.147364743627E-08  4.064149660956E-08  3.200739502057E-08
  2.514284458554E-08  1.969923265871E-08  1.539367154165E-08  1.199720649602E-08
  9.325022345438E-09  7.228331874747E-09  5.587675513714E-09  4.307401984090E-09
  3.311134383378E-09  2.538056206702E-09  1.939877640453E-09  1.478364614002E-09
  1.123332032519E-09  8.510187498870E-10  6.427755462281E-10  4.840089780557E-10
  3.633337612726E-10  2.718945839046E-10  2.028251510408E-10  1.508180349680E-10
  1.117837095113E-10  8.258113696617E-11  6.080557634442E-11  4.462200272234E-11
  3.263476327311E-11  2.378592630690E-11  1.727627350743E-11  1.250410026087E-11
  9.017973199642E-12  6.480388717928E-12  4.639915470927E-12  3.309916260481E-12
  2.352353907398E-12  1.665511288080E-12  1.174713789683E-12  8.253462361685E-13
  5.776166591116E-13  4.026449210388E-13  2.795522669913E-13  1.933041292381E-13
  1.331175590871E-13  9.129020479757E-14  6.234274115923E-14  4.239342171216E-14
  2.870381561148E-14  1.935026067050E-14  1.298725015652E-14  8.677760918606E-15
  5.772113389472E-15  3.821862433420E-15  2.518861616841E-15  1.652336034603E-15
  1.078779538342E-15  7.009425800611E-16  4.532339735634E-16  2.916267055863E-16
  1.867115535601E-16  1.189400417770E-16  7.538268463708E-17  4.753078924885E-17
  2.981338844379E-17  1.860172353134E-17  1.154444023045E-17  7.125943836021E-18
  4.374549728422E-18  2.670650364265E-18  1.621303493883E-18  9.786912436355E-19
  5.873963507025E-19  3.505020003261E-19  2.079181628428E-19  1.226041586403E-19
  7.186144729063E-20  4.186298988623E-20  0.000000000000E+00  0.000000000000E+00
  0.000000000000E+00  0.000000000000E+00  0.000000000000E+00  0.000000000000E+00
  0.000000000000E+00  0.000000000000E+00  0.000000000000E+00  0.000000000000E+00
  0.000000000000E+00  0.000000000000E+00  0.000000000000E+00  0.000000000000E+00
  0.000000000000E+00  0.000000000000E+00  0.000000000000E+00  0.000000000000E+00
  0.000000000000E+00  0.000000000000E+00  0.000000000000E+00  0.000000000000E+00
  0.000000000000E+00  0.000000000000E+00  0.000000000000E+00  0.000000000000E+00
  0.000000000000E+00  0.000000000000E+00  0.000000000000E+00  0.000000000000E+00
  0.000000000000E+00  0.000000000000E+00  0.000000000000E+00  0.000000000000E+00
  0.000000000000E+00  0.000000000000E+00  0.000000000000E+00  0.000000000000E+00
  0.000000000000E+00
</data>
</radfunc>
</valence-charge>
<pseudocore-charge matching-radius="1.41993760433"
 number-of-continuous-derivatives="4">
<annotation model-charge-form="Teter function with specified parameters" />
<radfunc>
<data npts="290">
  1.397304429639E+01  1.397267758430E+01  1.397158128156E+01  1.396975201496E+01
  1.396706729307E+01  1.396364071944E+01  1.395927201579E+01  1.395426729299E+01
  1.394863723336E+01  1.394206796260E+01  1.393465844381E+01  1.392659899231E+01
  1.391685058518E+01  1.390665989373E+01  1.389646995241E+01  1.388472052266E+01
  1.387117447902E+01  1.385831816195E+01  1.384384642344E+01  1.382755818908E+01
  1.380922786952E+01  1.379292432530E+01  1.377500912542E+01  1.375532524416E+01
  1.373370083794E+01  1.370994794881E+01  1.368386111647E+01  1.366263008272E+01
  1.363985817798E+01  1.361543630760E+01  1.358924807368E+01  1.356116935174E+01
  1.353106785329E+01  1.349880267602E+01  1.346422384335E+01  1.342717183594E+01
  1.338747711804E+01  1.334495966267E+01  1.331495265420E+01  1.328354705451E+01
  1.325068115502E+01  1.321629087293E+01  1.318030969598E+01  1.314266862987E+01
  1.310329614931E+01  1.306211815311E+01  1.301905792420E+01  1.297403609541E+01
  1.292697062184E+01  1.287777676093E+01  1.282636706124E+01  1.277265136120E+01
  1.271653679914E+01  1.265792783594E+01  1.259672629196E+01  1.253283139980E+01
  1.246613987483E+01  1.239654600523E+01  1.232394176384E+01  1.224821694383E+01
  1.216925932073E+01  1.208695484323E+01  1.200118785540E+01  1.191184135327E+01
  1.181879727858E+01  1.172193685277E+01  1.162114095455E+01  1.156922998758E+01
  1.151629054423E+01  1.146230783513E+01  1.140726713821E+01  1.135115381655E+01
  1.129395333709E+01  1.123565129030E+01  1.117623341088E+01  1.111568559934E+01
  1.105399394476E+01  1.099114474845E+01  1.092712454878E+01  1.086192014710E+01
  1.079551863472E+01  1.072790742115E+01  1.065907426334E+01  1.058900729630E+01
  1.051769506474E+01  1.044512655603E+01  1.037129123438E+01  1.029617907620E+01
  1.021978060679E+01  1.014208693821E+01  1.006308980847E+01  9.982781621894E+00
  9.901155490786E+00  9.818205278334E+00  9.733925642706E+00  9.648312082361E+00
  9.561360982541E+00  9.473069662906E+00  9.383436426277E+00  9.292460608447E+00
  9.200142629012E+00  9.106484043150E+00  9.011487594305E+00  8.915157267682E+00
  8.817498344472E+00  8.718517456735E+00  8.618222642805E+00  8.516623403137E+00
  8.413730756445E+00  8.309557296016E+00  8.204117246044E+00  8.097426517821E+00
  7.989502765621E+00  7.880365442086E+00  7.770035852915E+00  7.658537210646E+00
  7.545894687303E+00  7.432135465656E+00  7.317288788853E+00  7.201386008142E+00
  7.084460628390E+00  6.966548351112E+00  6.847687114677E+00  6.727917131369E+00
  6.607280920946E+00  6.485823340343E+00  6.363591609144E+00  6.240635330422E+00
  6.117006506565E+00  5.992759549660E+00  5.867951286020E+00  5.742640954429E+00
  5.616890197649E+00  5.490763046768E+00  5.364325897935E+00  5.237647481023E+00
  5.110798819798E+00  4.983853183136E+00  4.856886026866E+00  4.729974925811E+00
  4.603199495627E+00  4.476641304051E+00  4.350383771194E+00  4.224512058544E+00
  4.099112946376E+00  3.974274699305E+00  3.850086919761E+00  3.726640389211E+00
  3.604026897014E+00  3.482339056854E+00  3.361670110756E+00  3.242113720778E+00
  3.123763748539E+00  3.006714022835E+00  2.891058095687E+00  2.776888987269E+00
  2.664298920262E+00  2.553379044283E+00  2.444219151183E+00  2.336907382096E+00
  2.231529927259E+00  2.128170719760E+00  2.026911124483E+00  1.927829623667E+00
  1.831001500609E+00  1.736498523202E+00  1.644388629091E+00  1.554735614376E+00
  1.467598827906E+00  1.383032873308E+00  1.301087321012E+00  1.221806432588E+00
  1.145228899828E+00  1.071387601024E+00  1.000309376939E+00  9.320148290046E-01
  8.665181422319E-01  8.038269353195E-01  7.439421403585E-01  6.868579144460E-01
  6.325615853893E-01  5.810336335182E-01  5.322477114262E-01  4.861707032248E-01
  4.427628246215E-01  4.019777648246E-01  3.637628709283E-01  3.280593750516E-01
  2.948026640906E-01  2.639225914961E-01  2.353438300205E-01  2.089862638798E-01
  1.847654182724E-01  1.625929236708E-01  1.423770117839E-01  1.240230395675E-01
  1.074340371593E-01  9.251127513376E-02  7.915484602994E-02  6.726425470073E-02
  5.673901169109E-02  4.747922357122E-02  3.938617394968E-02  3.236288877586E-02
  2.631467952167E-02  2.114965791661E-02  1.677921610513E-02  1.311846640427E-02
  1.008663526624E-02  7.607406594081E-03  5.609210216028E-03  4.025452089353E-03
  2.794683668838E-03  1.860708824837E-03  1.172627716118E-03  6.848180937146E-04
  3.568556117980E-04  1.533758252084E-04  4.388163390464E-05  2.500963590093E-06
  7.700420002450E-06  4.196149270643E-05  9.142658477674E-05  1.455226817997E-04
  1.965708247946E-04  2.393896990626E-04  2.709015822528E-04  2.897486042374E-04
  2.959267601669E-04  2.904443956935E-04  2.750109673470E-04  2.517607971680E-04
  2.230153224151E-04  1.910860289217E-04  1.581188966408E-04  1.259798283261E-04
  9.617922949892E-05  6.983271192939E-05  4.765385317865E-05  2.997410527851E-05
  1.678434239461E-05  7.792196057567E-06  2.489260675452E-06  2.224612517117E-07
  2.643447395921E-07  1.877757095987E-06  4.371257305220E-06  7.142643450926E-06
  9.709061783578E-06  1.172327022372E-05  1.297666479261E-05  1.339058700720E-05
  1.299815689796E-05  1.191937754217E-05  1.033250692086E-05  8.444684584938E-06
  6.464547214416E-06  4.579101345599E-06  2.936493203114E-06  1.635587831252E-06
  7.225135330571E-07  1.936153719671E-07  3.660069369393E-09  7.769879167753E-08
  3.247609257935E-07  6.515358735893E-07  9.743921831192E-07  1.228451890309E-06
  1.372931019919E-06  1.392509317829E-06  1.295032134678E-06  1.106306694691E-06
  8.630774289386E-07  6.054138148571E-07  3.697071338230E-07  1.832642010879E-07
  6.114554055063E-08  5.480714269546E-09  0.000000000000E+00  0.000000000000E+00
  0.000000000000E+00  0.000000000000E+00  0.000000000000E+00  0.000000000000E+00
  0.000000000000E+00  0.000000000000E+00  0.000000000000E+00  0.000000000000E+00
  0.000000000000E+00  0.000000000000E+00
</data>
</radfunc>
</pseudocore-charge>
<semilocal-potentials set="scalar_relativistic">
<slps n="5" l="s" rc="2.00680014348" eref="-0.734356640374">
<radfunc>
<data npts="290">
  3.109362895160E+01  3.108026938441E+01  3.104038017721E+01  3.097398787957E+01
  3.087692130824E+01  3.075367500092E+01  3.059757737332E+01  3.042016485336E+01
  3.022236291415E+01  2.999390993986E+01  2.973922063473E+01  2.946571882937E+01
  2.913971415118E+01  2.880442618071E+01  2.847465786111E+01  2.810107001004E+01
  2.767895162090E+01  2.728659138924E+01  2.685426135321E+01  2.637909973632E+01
  2.585832279349E+01  2.540708463308E+01  2.492372929400E+01  2.440715418971E+01
  2.385642720628E+01  2.327082544059E+01  2.264987550068E+01  2.216084363201E+01
  2.165186162587E+01  2.112308613905E+01  2.057479600628E+01  2.000739986385E+01
  1.942144267110E+01  1.881761088393E+01  1.819673604196E+01  1.755979654805E+01
  1.690791744563E+01  1.624236803610E+01  1.579176402027E+01  1.533615831377E+01
  1.487602653566E+01  1.441186799042E+01  1.394420409463E+01  1.347357661649E+01
  1.300054573953E+01  1.252568796393E+01  1.204959386148E+01  1.157286570196E+01
  1.109611497079E+01  1.061995979898E+01  1.014502232773E+01  9.671926030479E+00
  9.201293015797E+00  8.733741333948E+00  8.269882309753E+00  7.810317923123E+00
  7.355638257312E+00  6.906419033141E+00  6.463219245348E+00  6.026578914783E+00
  5.597016967572E+00  5.175029249569E+00  4.761086681491E+00  4.355633557223E+00
  3.959085984833E+00  3.571830467050E+00  3.194222615306E+00  3.009138957881E+00
  2.826585989023E+00  2.646598973983E+00  2.469211049748E+00  2.294453197773E+00
  2.122354217992E+00  1.952940704005E+00  1.786237019335E+00  1.622265274613E+00
  1.461045305613E+00  1.302594652008E+00  1.146928536744E+00  9.940598459477E-01
  8.439991092545E-01  6.967544805012E-01  5.523317186934E-01  4.107341692000E-01
  2.719627451309E-01  1.360159088708E-01  2.889653765262E-03 -1.274225140292E-01
 -2.549295934904E-01 -3.796431064095E-01 -5.015771147098E-01 -6.207482372861E-01
 -7.371756662055E-01 -8.508811820837E-01 -9.618891684034E-01 -1.070226624511E+00
 -1.175923176974E+00 -1.279011088952E+00 -1.379525267167E+00 -1.477503266022E+00
 -1.572985288375E+00 -1.666014182396E+00 -1.756635433907E+00 -1.844897153533E+00
 -1.930850057955E+00 -2.014547444476E+00 -2.096045158087E+00 -2.175401550143E+00
 -2.252677427726E+00 -2.327935992723E+00 -2.401242769593E+00 -2.472665520792E+00
 -2.542274148754E+00 -2.610140583359E+00 -2.676338653753E+00 -2.740943943437E+00
 -2.804033627522E+00 -2.865686291103E+00 -2.925981727721E+00 -2.985000716986E+00
 -3.042824780477E+00 -3.099535915178E+00 -3.155216303793E+00 -3.209948001499E+00
 -3.263812598788E+00 -3.316890860333E+00 -3.369262339984E+00 -3.421004972267E+00
 -3.472194641059E+00 -3.522904726372E+00 -3.573205630532E+00 -3.623164285378E+00
 -3.672843642445E+00 -3.722302148502E+00 -3.771593209149E+00 -3.820764643635E+00
 -3.869858134360E+00 -3.918908674988E+00 -3.967944021405E+00 -4.016984150159E+00
 -4.066040729303E+00 -4.115116606918E+00 -4.164205322806E+00 -4.213290649135E+00
 -4.262346165962E+00 -4.311334877730E+00 -4.360208876946E+00 -4.408909061293E+00
 -4.457364910447E+00 -4.505494328870E+00 -4.553203560769E+00 -4.600387183344E+00
 -4.646928184361E+00 -4.692698129957E+00 -4.737557428504E+00 -4.781355696259E+00
 -4.823932230471E+00 -4.865116595595E+00 -4.904729328275E+00 -4.942582766856E+00