<?xml version="1.0" encoding="UTF-8" ?>
<psml version="1.1" energy_unit="hartree" length_unit="bohr"
 uuid="e785cc90-23d2-11e8-755f-aa77b9b76b5c"
 xmlns="http://esl.cecam.org/PSML/ns/1.1">
<provenance creator="ONCVPSP-3.3.0+psml-3.3.0-73 (scalar-relativistic)"
 date="2018-03-09">
<annotation action="semilocal-pseudopotential-generation"
 action-cont="projectors-generation" />
<input-file name="oncvpsp-input">
<![CDATA[# atsym z nc nv iexc psfile
Y 39 6 4 -001012 upf
# n l f
1 0 2.0
2 0 2.0
2 1 6.0
3 0 2.0
3 1 6.0
3 2 10.0
4 0 2.0
4 1 6.0
4 2 1.0
5 0 2.0
# lmax
2
# l rc ep ncon nbas qcut
0 1.6 0.0 4 7 7.0
1 1.5 0.0 4 9 8.6
2 1.55 0.0 4 9 8.8
# lloc lpopt rc5 dvloc0
4 5 1.5 0.0
# l nproj debl
0 2 1.0
1 2 2.0
2 2 3.2
# icmod fcfact rcfact
3 4.0 1.35
# epsh1 epsh2 depsh
-12.0 12.0 0.02
# rlmax drl
6.0 0.01
 0
]]>
</input-file>
</provenance>
<pseudo-atom-spec atomic-label="Y" atomic-number="39" z-pseudo="11"
 flavor="Hamann&apos;s oncvpsp" relativity="scalar" spin-dft="no"
 core-corrections="yes">
<annotation pseudo-energy="-38.4916618622" />
<exchange-correlation>
<annotation oncvpsp-xc-code="-1012" oncvpsp-xc-type="libxc-interface" />
<libxc-info number-of-functionals="2">
<functional name="Slater exchange (LDA)" type="exchange" id="1" />
<functional name="Perdew &amp; Wang (LDA)" type="correlation" id="12" />
</libxc-info>
</exchange-correlation>
<valence-configuration total-valence-charge="11">
<shell n="4" l="s" occupation="2" />
<shell n="4" l="p" occupation="6" />
<shell n="4" l="d" occupation="1" />
<shell n="5" l="s" occupation="2" />
</valence-configuration>
</pseudo-atom-spec>
<grid npts="457">
<annotation type="sampled from oncvpsp log grid"
 recipe="r(i:1..N) = r1*exp(a*(i-1)) + r=0; resampled"
 recipe-cont="r1: scale; a: step" scale="0.128205128205E-04"
 step="0.119285708653E-01" delta="0.500000000000E-02" rmax="44.2295149952" />
<grid-data>
  0.000000000000E+00  5.050590548830E-03  1.008815826517E-02  1.513384605994E-02
  2.015030444445E-02  2.527617477690E-02  3.059141388125E-02  3.572285924000E-02
  4.073163561015E-02  4.589199894225E-02  5.109302162005E-02  5.620897780706E-02
  6.183719588184E-02  6.722230113325E-02  7.307636941178E-02  7.849826132568E-02
  8.432242981903E-02  8.950466576223E-02  9.500538836940E-02  1.008441709977E-01
  1.070417899317E-01  1.122730220474E-01  1.177599093560E-01  1.235149459651E-01
  1.295512365812E-01  1.358825263501E-01  1.425232321553E-01  1.477158848294E-01
  1.530977251985E-01  1.586756460758E-01  1.644567914052E-01  1.704485654110E-01
  1.766586420811E-01  1.830949749956E-01  1.897658075127E-01  1.966796833273E-01
  2.038454574128E-01  2.112723073622E-01  2.163732659512E-01  2.215973820843E-01
  2.269476292774E-01  2.324270528386E-01  2.380387716024E-01  2.437859797039E-01
  2.496719483979E-01  2.557000279200E-01  2.618736493941E-01  2.681963267851E-01
  2.746716588990E-01  2.813033314314E-01  2.880951190655E-01  2.950508876202E-01
  3.021745962510E-01  3.094702997028E-01  3.169421506189E-01  3.245944019034E-01
  3.324314091430E-01  3.404576330853E-01  3.486776421785E-01  3.570961151713E-01
  3.657178437760E-01  3.745477353961E-01  3.835908159195E-01  3.928522325791E-01
  4.023372568825E-01  4.120512876126E-01  4.219998539007E-01  4.270638521475E-01
  4.321886183733E-01  4.373748817938E-01  4.426233803753E-01  4.479348609398E-01
  4.533100792711E-01  4.587498002224E-01  4.642547978250E-01  4.698258553989E-01
  4.754637656637E-01  4.811693308517E-01  4.869433628219E-01  4.927866831758E-01
  4.987001233739E-01  5.046845248544E-01  5.107407391526E-01  5.168696280224E-01
  5.230720635587E-01  5.293489283214E-01  5.357011154613E-01  5.421295288468E-01
  5.486350831930E-01  5.552187041913E-01  5.618813286416E-01  5.686239045853E-01
  5.754473914403E-01  5.823527601376E-01  5.893409932592E-01  5.964130851783E-01
  6.035700422005E-01  6.108128827069E-01  6.181426372994E-01  6.255603489470E-01
  6.330670731343E-01  6.406638780119E-01  6.483518445481E-01  6.561320666827E-01
  6.640056514829E-01  6.719737193007E-01  6.800374039323E-01  6.881978527794E-01
  6.964562270128E-01  7.048137017370E-01  7.132714661578E-01  7.218307237517E-01
  7.304926924367E-01  7.392586047460E-01  7.481297080029E-01  7.571072644989E-01
  7.661925516729E-01  7.753868622930E-01  7.846915046405E-01  7.941078026962E-01
  8.036370963286E-01  8.132807414845E-01  8.230401103823E-01  8.329165917069E-01
  8.429115908074E-01  8.530265298971E-01  8.632628482558E-01  8.736220024349E-01
  8.841054664641E-01  8.947147320617E-01  9.054513088464E-01  9.163167245526E-01
  9.273125252472E-01  9.384402755502E-01  9.497015588568E-01  9.610979775631E-01
  9.726311532938E-01  9.843027271334E-01  9.961143598590E-01  1.008067732177E+00
  1.020164544963E+00  1.032406519503E+00  1.044795397737E+00  1.057332942510E+00
  1.070020937820E+00  1.082861189074E+00  1.095855523343E+00  1.109005789623E+00
  1.122313859098E+00  1.135781625407E+00  1.149411004912E+00  1.163203936971E+00
  1.177162384215E+00  1.191288332826E+00  1.205583792819E+00  1.220050798333E+00
  1.234691407913E+00  1.249507704808E+00  1.264501797266E+00  1.279675818833E+00
  1.295031928659E+00  1.310572311803E+00  1.326299179545E+00  1.342214769699E+00
  1.358321346936E+00  1.374621203099E+00  1.391116657536E+00  1.407810057426E+00
  1.424703778116E+00  1.441800223453E+00  1.459101826134E+00  1.476611048048E+00
  1.494330380625E+00  1.512262345192E+00  1.530409493334E+00  1.548774407254E+00
  1.567359700141E+00  1.586168016543E+00  1.605202032742E+00  1.624464457135E+00
  1.643958030620E+00  1.663685526988E+00  1.683649753311E+00  1.703853550351E+00
  1.724299792955E+00  1.744991390471E+00  1.765931287156E+00  1.787122462602E+00
  1.808567932154E+00  1.830270747339E+00  1.852233996308E+00  1.874460804263E+00
  1.896954333914E+00  1.919717785921E+00  1.942754399352E+00  1.966067452145E+00
  1.989660261570E+00  2.013536184709E+00  2.037698618926E+00  2.062151002353E+00
  2.086896814381E+00  2.111939576154E+00  2.137282851067E+00  2.162930245280E+00
  2.188885408224E+00  2.215152033122E+00  2.241733857520E+00  2.268634663810E+00
  2.295858279776E+00  2.323408579133E+00  2.351289482083E+00  2.379504955868E+00
  2.408059015338E+00  2.436955723522E+00  2.466199192204E+00  2.495793582511E+00
  2.525743105501E+00  2.556052022767E+00  2.586724647040E+00  2.617765342805E+00
  2.649178526918E+00  2.680968669241E+00  2.713140293272E+00  2.745697976791E+00
  2.778646352513E+00  2.811990108743E+00  2.845733990048E+00  2.879882797929E+00
  2.914441391504E+00  2.949414688202E+00  2.984807664460E+00  3.020625356434E+00
  3.056872860711E+00  3.093555335040E+00  3.130677999060E+00  3.168246135049E+00
  3.206265088669E+00  3.244740269733E+00  3.283677152970E+00  3.323081278806E+00
  3.362958254151E+00  3.403313753201E+00  3.444153518240E+00  3.485483360459E+00
  3.527309160784E+00  3.569636870713E+00  3.612472513162E+00  3.655822183320E+00
  3.699692049520E+00  3.744088354114E+00  3.789017414363E+00  3.834485623336E+00
  3.880499450816E+00  3.927065444226E+00  3.974190229556E+00  4.021880512311E+00
  4.070143078459E+00  4.118984795400E+00  4.168412612945E+00  4.218433564300E+00
  4.269054767072E+00  4.320283424277E+00  4.372126825368E+00  4.424592347273E+00
  4.477687455440E+00  4.531419704905E+00  4.585796741364E+00  4.640826302260E+00
  4.696516217887E+00  4.752874412502E+00  4.809908905452E+00  4.867627812318E+00
  4.926039346065E+00  4.985151818218E+00  5.044973640037E+00  5.105513323717E+00
  5.166779483602E+00  5.228780837405E+00  5.291526207454E+00  5.355024521943E+00
  5.419284816207E+00  5.484316234001E+00  5.550128028809E+00  5.616729565155E+00
  5.684130319937E+00  5.752339883776E+00  5.821367962381E+00  5.891224377930E+00
  5.961919070465E+00  6.033462099311E+00  6.105863644502E+00  6.179134008236E+00
  6.253283616335E+00  6.328323019731E+00  6.404262895968E+00  6.481114050720E+00
  6.558887419328E+00  6.637594068360E+00  6.717245197181E+00  6.797852139547E+00
  6.879426365221E+00  6.961979481604E+00  7.045523235383E+00  7.130069514208E+00
  7.215630348378E+00  7.302217912559E+00  7.389844527509E+00  7.478522661840E+00
  7.568264933782E+00  7.659084112987E+00  7.750993122343E+00  7.844005039811E+00
  7.938133100289E+00  8.033390697492E+00  8.129791385862E+00  8.227348882492E+00
  8.326077069082E+00  8.425989993911E+00  8.527101873838E+00  8.629427096324E+00
  8.732980221480E+00  8.837775984138E+00  8.943829295948E+00  9.051155247499E+00
  9.159769110469E+00  9.269686339795E+00  9.380922575872E+00  9.493493646783E+00
  9.607415570544E+00  9.722704557391E+00  9.839377012079E+00  9.957449536224E+00
  1.007693893066E+01  1.019786219783E+01  1.032023654420E+01  1.044407938273E+01
  1.056940833532E+01  1.069624123535E+01  1.082459613017E+01  1.095449128373E+01
  1.108594517914E+01  1.121897652129E+01  1.135360423954E+01  1.148984749042E+01
  1.162772566030E+01  1.176725836823E+01  1.190846546865E+01  1.205136705427E+01
  1.219598345892E+01  1.234233526043E+01  1.249044328355E+01  1.264032860296E+01
  1.279201254619E+01  1.294551669675E+01  1.310086289711E+01  1.325807325187E+01
  1.341717013089E+01  1.357817617246E+01  1.374111428653E+01  1.390600765797E+01
  1.407287974987E+01  1.424175430687E+01  1.441265535855E+01  1.458560722285E+01
  1.476063450953E+01  1.493776212364E+01  1.511701526912E+01  1.529841945235E+01
  1.548200048578E+01  1.566778449161E+01  1.585579790551E+01  1.604606748038E+01
  1.623862029014E+01  1.643348373362E+01  1.663068553843E+01  1.683025376489E+01
  1.703221681007E+01  1.723660341179E+01  1.744344265273E+01  1.765276396456E+01
  1.786459713214E+01  1.807897229772E+01  1.829591996529E+01  1.851547100488E+01
  1.873765665694E+01  1.896250853682E+01  1.919005863926E+01  1.942033934293E+01
  1.965338341505E+01  1.988922401603E+01  2.012789470422E+01  2.036942944067E+01
  2.061386259396E+01  2.086122894509E+01  2.111156369243E+01  2.136490245674E+01
  2.162128128622E+01  2.188073666165E+01  2.214330550159E+01  2.240902516761E+01
  2.267793346962E+01  2.295006867126E+01  2.322546949531E+01  2.350417512926E+01
  2.378622523081E+01  2.407165993358E+01  2.436051985278E+01  2.465284609101E+01
  2.494868024411E+01  2.524806440704E+01  2.555104117992E+01  2.585765367408E+01
  2.616794551817E+01  2.648196086439E+01  2.679974439476E+01  2.712134132750E+01
  2.744679742343E+01  2.777615899251E+01  2.810947290042E+01  2.844678657522E+01
  2.878814801412E+01  2.913360579029E+01  2.948320905978E+01  2.983700756849E+01
  3.019505165932E+01  3.055739227923E+01  3.092408098658E+01  3.129516995842E+01
  3.167071199792E+01  3.205076054189E+01  3.243536966840E+01  3.282459410442E+01
  3.321848923367E+01  3.361711110447E+01  3.402051643773E+01  3.442876263498E+01
  3.484190778660E+01  3.526001068004E+01  3.568313080820E+01  3.611132837790E+01
  3.654466431843E+01  3.698320029026E+01  3.742699869374E+01  3.787612267806E+01
  3.833063615020E+01  3.879060378400E+01  3.925609102941E+01  3.972716412176E+01
  4.020389009122E+01  4.068633677232E+01  4.117457281359E+01  4.166866768735E+01
  4.216869169960E+01  4.267471599999E+01  4.318681259199E+01  4.370505434310E+01
  4.422951499521E+01
</grid-data>
</grid>
<valence-charge total-charge="11" is-unscreening-charge="yes"
 rescaled-to-z-pseudo="no">
<radfunc>
<data npts="457">
  5.502772428359E-02  5.516619992397E-02  5.558044009678E-02  5.627250297144E-02
  5.723671966405E-02  5.850812638081E-02  6.013438949515E-02  6.200468750553E-02
  6.411795418472E-02  6.659615993519E-02  6.940735131713E-02  7.248437059231E-02
  7.623296564041E-02  8.018288629261E-02  8.488827908192E-02  8.963707859025E-02
  9.516679116011E-02  1.004690583242E-01  1.065004318666E-01  1.133682624793E-01
  1.211973351137E-01  1.282495949410E-01  1.360950840012E-01  1.448306745630E-01
  1.545663241159E-01  1.654270054766E-01  1.775549308957E-01  1.875791387708E-01
  1.984834292742E-01  2.103523637332E-01  2.232793404084E-01  2.373675516578E-01
  2.527310373705E-01  2.694958410066E-01  2.878012739246E-01  3.078012926038E-01
  3.296659917534E-01  3.535832139926E-01  3.707698409601E-01  3.890270100857E-01
  4.084257876203E-01  4.290419573246E-01  4.509562857996E-01  4.742547920368E-01
  4.990290189639E-01  5.253763042448E-01  5.534000469881E-01  5.832099663269E-01
  6.149223470468E-01  6.486602665421E-01  6.845537963701E-01  7.227401705359E-01
  7.633639113735E-01  8.065769024741E-01  8.525383965600E-01  9.014149444956E-01
  9.533802297687E-01  1.008614790782E+00  1.067305611156E+00  1.129645555995E+00
  1.195832629735E+00  1.266069028802E+00  1.340559959916E+00  1.419512192580E+00
  1.503132312128E+00  1.591624637846E+00  1.685188769232E+00  1.733933150671E+00
  1.784016722579E+00  1.835461759027E+00  1.888289620051E+00  1.942520621148E+00
  1.998173894387E+00  2.055267240928E+00  2.113816974730E+00  2.173837757268E+00
  2.235342423113E+00  2.298341796269E+00  2.362844497201E+00  2.428856740538E+00
  2.496382123502E+00  2.565421405170E+00  2.635972276751E+00  2.708029123147E+00
  2.781582776151E+00  2.856620259737E+00  2.933124528004E+00  3.011074196465E+00
  3.090443267486E+00  3.171200850827E+00  3.253310880385E+00  3.336731828415E+00
  3.421416418629E+00  3.507311339812E+00  3.594356961739E+00  3.682487055385E+00
  3.771628519621E+00  3.861701116814E+00  3.952617219926E+00  4.044281573949E+00
  4.136591074717E+00  4.229434568337E+00  4.322692674694E+00  4.416237638656E+00
  4.509933212813E+00  4.603634575706E+00  4.697188289649E+00  4.790432302370E+00
  4.883195996719E+00  4.975300292768E+00  5.066557806578E+00  5.156773069843E+00
  5.245742814503E+00  5.333256326200E+00  5.419095870211E+00  5.503037193130E+00
  5.584850103169E+00  5.664299131423E+00  5.741144275884E+00  5.815141829278E+00
  5.886045291071E+00  5.953606363121E+00  6.017576027532E+00  6.077705704278E+00
  6.133748485064E+00  6.185460438835E+00  6.232601983088E+00  6.274939314052E+00
  6.312245887513E+00  6.344303940916E+00  6.370906046202E+00  6.391856681699E+00
  6.406973810364E+00  6.416090450712E+00  6.419056225894E+00  6.415738875723E+00
  6.406025715848E+00  6.389825027878E+00  6.367067364051E+00  6.337706749985E+00
  6.301721769208E+00  6.259116513489E+00  6.209921383528E+00  6.154193725274E+00
  6.092018288008E+00  6.023507491403E+00  5.948801489965E+00  5.868068024646E+00
  5.781502052917E+00  5.689325150280E+00  5.591784677979E+00  5.489152713726E+00
  5.381724744336E+00  5.269818121635E+00  5.153770285514E+00  5.033936760903E+00
  4.910688938539E+00  4.784411652766E+00  4.655500573339E+00  4.524359432071E+00
  4.391397109377E+00  4.257024610012E+00  4.121651961697E+00  3.985685074513E+00
  3.849522602962E+00  3.713552856073E+00  3.578150803739E+00  3.443675229373E+00
  3.310466079652E+00  3.178842061493E+00  3.049098534187E+00  2.921505740736E+00
  2.796307416861E+00  2.673719808863E+00  2.553931509274E+00  2.437105344518E+00
  2.323381581159E+00  2.212878989698E+00  2.105694806893E+00  2.001905778499E+00
  1.901569960293E+00  1.804729172247E+00  1.711409809210E+00  1.621623728497E+00
  1.535369141520E+00  1.452631524742E+00  1.373384537223E+00  1.297590939730E+00
  1.225203509638E+00  1.156165946377E+00  1.090413762683E+00  1.027875156908E+00
  9.684718631583E-01  9.121199750265E-01  8.587307401858E-01  8.082113230915E-01
  7.604655335188E-01  7.153945190549E-01  6.728974200371E-01  6.328719857888E-01
  5.952151513425E-01  5.598235741619E-01  5.265941306739E-01  4.954243726996E-01
  4.662129441335E-01  4.388599584544E-01  4.132673378671E-01  3.893391150666E-01
  3.669816987887E-01  3.461041044610E-01  3.266181513966E-01  3.084386280870E-01
  2.914834272345E-01  2.756736522405E-01  2.609336969165E-01  2.471913002226E-01
  2.343775778540E-01  2.224270325055E-01  2.112775446284E-01  2.008703454758E-01
  1.911499741928E-01  1.820642206670E-01  1.735640557938E-01  1.656035507527E-01
  1.581397868175E-01  1.511327571456E-01  1.445452619163E-01  1.383427980976E-01
  1.324934450390E-01  1.269677469998E-01  1.217385936348E-01  1.167810993680E-01
  1.120724825137E-01  1.075919449018E-01  1.033205526972E-01  9.924111902361E-02
  9.533808892515E-02  9.159742713177E-02  8.800650902803E-02  8.455401516284E-02
  8.122982958035E-02  7.802494219871E-02  7.493135541439E-02  7.194199506413E-02
  6.905062583573E-02  6.625177118108E-02  6.354063775129E-02  6.091304434299E-02
  5.836535531804E-02  5.589441843492E-02  5.349750700858E-02  5.117226629758E-02
  4.891666400128E-02  4.672894473643E-02  4.460758835122E-02  4.255127192579E-02
  4.055883530058E-02  3.862924996860E-02  3.676159116329E-02  3.495501297153E-02
  3.320872629958E-02  3.152197951986E-02  2.989404162753E-02  2.832418773748E-02
  2.681168675531E-02  2.535579105914E-02  2.395572803347E-02  2.261069330081E-02
  2.131984550185E-02  2.008230248091E-02  1.889713873871E-02  1.776338402104E-02
  1.668002291800E-02  1.564599535503E-02  1.466019786342E-02  1.372148552458E-02
  1.282867448846E-02  1.198054497423E-02  1.117584466641E-02  1.041329242659E-02
  9.691582247156E-03  9.009387379137E-03  8.365364572533E-03  7.758158372879E-03
  7.186405423407E-03  6.648738727425E-03  6.143791830540E-03  5.670202887210E-03
  5.226618580682E-03  4.811697869706E-03  4.424115539561E-03  4.062565538786E-03
  3.725764086649E-03  3.412452539783E-03  3.121400009601E-03  2.851405725018E-03
  2.601301137728E-03  2.369951769739E-03  2.156258805161E-03  1.959160430253E-03
  1.777632927585E-03  1.610691531772E-03  1.457391055692E-03  1.316826297301E-03
  1.188132238211E-03  1.070484046068E-03  9.630968934530E-04  8.652256065496E-04
  7.761641572073E-04  6.952450122550E-04  6.218383540013E-04  5.553511858324E-04
  4.952263366587E-04  4.409413777040E-04  3.920074647736E-04  3.479681186976E-04
  3.083979561249E-04  2.729013822627E-04  2.411112565201E-04  2.126875413311E-04
  1.873159437167E-04  1.647065584060E-04  1.445925205781E-04  1.267286755224E-04
  1.108902717529E-04  9.687168335471E-05  8.448516660256E-05  7.355965517045E-05
  6.393959756004E-05  5.548383971282E-05  4.806455514490E-05  4.156622435508E-05
  3.588466470899E-05  3.092611149753E-05  2.660635040658E-05  2.284990121800E-05
  1.958925218987E-05  1.676414423482E-05  1.432090372966E-05  1.221182254503E-05
  1.039458367876E-05  8.831730709631E-06  7.490179155697E-06  6.340767722676E-06
  5.357847358335E-06  4.518905987467E-06  3.804226785079E-06  3.196577850586E-06
  2.680931170276E-06  2.244208796478E-06  1.875054227289E-06  1.563627037936E-06
  1.301418891665E-06  1.081089142415E-06  8.963183314578E-07  7.416779740476E-07
  6.125151282653E-07  5.048503353381E-07  4.152876175592E-07  3.409353154662E-07
  2.793366392927E-07  2.284089001608E-07  1.863904734398E-07  1.517946296999E-07
  1.233694474044E-07  1.000630956643E-07  8.099384489205E-08  6.542422796787E-08
  5.273883458797E-08  4.242527686240E-08  3.405791509377E-08  2.728397915065E-08
  2.181176314335E-08  1.740060942519E-08  1.385243251092E-08  1.100456456397E-08
  8.723731901867E-09  6.900996751066E-09  5.447520490391E-09  4.291024095745E-09
  3.372838664595E-09  2.645453976970E-09  2.070486246325E-09  1.616997723120E-09
  1.260110817007E-09  9.798680674018E-10  7.602967707327E-10  5.886435060930E-10
  4.547493170374E-10  3.505410208806E-10  2.696181315780E-10  2.069182905195E-10
  1.584469835392E-10  1.210597549053E-10  9.228717408599E-11  7.019452490451E-11
  5.326961835998E-11  4.033332257766E-11  3.046839297694E-11  2.296300465536E-11
  1.726606451008E-11  1.295193612817E-11  9.692665881810E-12  7.236170852418E-12
  5.389152452139E-12  4.003745929342E-12  2.967115415423E-12  2.193365215186E-12
  1.617267674119E-12  1.189411988735E-12  8.724615676301E-13  6.382739595137E-13
  4.656901884575E-13  3.388422323056E-13  2.458605119714E-13  1.778893849993E-13
  1.283391787652E-13  9.231940429685E-14  6.621038415256E-14  4.734033746958E-14
  3.374265578038E-14  2.397371404781E-14  1.615549947680E-15  1.063235754205E-15
  6.964375253013E-16  4.539975685223E-16  2.945226671308E-16  1.901308170738E-16
  1.221319653817E-16  7.805906714401E-17  4.963732517807E-17  3.140204210395E-17
  1.976264652507E-17  1.237208405227E-17  7.704131662521E-18  4.771553537407E-18
  2.939158684978E-18  1.800465951870E-18  1.096772643547E-18  6.643377740119E-19
  4.001035415876E-19  2.395725568760E-19  1.426108979799E-19  8.438955930676E-20
  4.963797922596E-20  2.902000416257E-20  1.686192294696E-20  9.736678688948E-21
  5.586967367980E-21  3.185444293112E-21  1.804508988390E-21  1.015568549812E-21
  5.677885851570E-22  0.000000000000E+00  0.000000000000E+00  0.000000000000E+00
  0.000000000000E+00
</data>
</radfunc>
</valence-charge>
<pseudocore-charge matching-radius="0.873622002435"
 number-of-continuous-derivatives="4">
<annotation model-charge-form="Teter function with specified parameters" />
<radfunc>
<data npts="290">
  2.704726784860E+01  2.704570075166E+01  2.704101612038E+01  2.703320037330E+01
  2.702233344339E+01  2.700804393248E+01  2.698983105044E+01  2.696897422071E+01
  2.694552101947E+01  2.691816828689E+01  2.688733371865E+01  2.685381461581E+01
  2.681329923442E+01  2.677097851282E+01  2.672104645502E+01  2.667117109777E+01
  2.661372851948E+01  2.655926945563E+01  2.649803589463E+01  2.642920292450E+01
  2.635184997420E+01  2.628314754700E+01  2.620775967898E+01  2.612505710526E+01
  2.603435580091E+01  2.593491316876E+01  2.582592417620E+01  2.573739607633E+01
  2.564261618051E+01  2.554116816654E+01  2.543261185878E+01  2.531648247576E+01
  2.519228996345E+01  2.505951843879E+01  2.491762577198E+01  2.476604334045E+01
  2.460417599191E+01  2.443140225948E+01  2.430984206952E+01  2.418294945251E+01
  2.405052164987E+01  2.391235132891E+01  2.376822682641E+01  2.361793244114E+01
  2.346124878021E+01  2.329795316413E+01  2.312782009609E+01  2.295062180086E+01
  2.276612883930E+01  2.257411080456E+01  2.237433710624E+01  2.216657784902E+01
  2.195060481241E+01  2.172619253828E+01  2.149311953293E+01  2.125116959026E+01
  2.100013324256E+01  2.073980934508E+01  2.047000679994E+01  2.019054642479E+01
  1.990126297026E+01  1.960200728970E+01  1.929264866333E+01  1.897307727732E+01
  1.864320685659E+01  1.830297744815E+01  1.795235834892E+01  1.777315181994E+01
  1.759135116950E+01  1.740696217096E+01  1.721999302177E+01  1.703045444874E+01
  1.683835981446E+01  1.664372522474E+01  1.644656963685E+01  1.624691496825E+01
  1.604478620566E+01  1.584021151405E+01  1.563322234530E+01  1.542385354628E+01
  1.521214346575E+01  1.499813405997E+01  1.478187099635E+01  1.456340375494E+01
  1.434278572700E+01  1.412007431045E+01  1.389533100143E+01  1.366862148150E+01
  1.344001569993E+01  1.320958795035E+01  1.297741694128E+01  1.274358585961E+01
  1.250818242658E+01  1.227129894538E+01  1.203303233970E+01  1.179348418224E+01
  1.155276071280E+01  1.131097284462E+01  1.106823615854E+01  1.082467088390E+01
  1.058040186542E+01  1.033555851519E+01  1.009027474881E+01  9.844688905031E+00
  9.598943647770E+00  9.353185849921E+00  9.107566457980E+00  8.862240336800E+00
  8.617366093688E+00  8.373105881172E+00  8.129625177791E+00  7.887092546342E+00
  7.645679369082E+00  7.405559559475E+00  7.166909250176E+00  6.929906457037E+00
  6.694730719068E+00  6.461562714377E+00  6.230583852315E+00  6.001975842143E+00
  5.775920238767E+00  5.552597966241E+00  5.332188819917E+00  5.114870948371E+00
  4.900820316403E+00  4.690210150666E+00  4.483210369707E+00  4.279987000425E+00
  4.080701583246E+00  3.885510568510E+00  3.694564706868E+00  3.508008436713E+00
  3.325979271943E+00  3.148607193564E+00  2.976014048932E+00  2.808312962601E+00
  2.645607762996E+00  2.487992429291E+00  2.335550563045E+00  2.188354889293E+00
  2.046466791862E+00  1.909935887786E+00  1.778799645667E+00  1.653083052837E+00
  1.532798336085E+00  1.417944740563E+00  1.308508371312E+00  1.204462101565E+00
  1.105765551667E+00  1.012365142058E+00  9.241942232682E-01  8.411732853836E-01
  7.632102487605E-01  6.902008371418E-01  6.220290335401E-01  5.585676184524E-01
  4.996787890956E-01  4.452148574314E-01  3.950190237844E-01  3.489262218692E-01
  3.067640300297E-01  2.683536424862E-01  2.335108933854E-01  2.020473254851E-01
  1.737712943861E-01  1.484890983813E-01  1.260061232322E-01  1.061279905411E-01
  8.866169787499E-02  7.341673843536E-02  6.020618788246E-02  4.884774592136E-02
  3.916472046184E-02  3.098694258371E-02  2.415160118229E-02  1.850398703866E-02
  1.389813715556E-02  1.019737151411E-02  7.274715927426E-03  5.013206374116E-03
  3.306072063327E-03  2.056796479616E-03  1.179057743913E-03  5.965517609172E-04
  2.427037550674E-04  6.027587377197E-05  8.805022228680E-07  2.441073228940E-05
  9.840100262968E-05  1.973322249041E-04  3.018966831600E-04  3.982385983221E-04
  4.771864545677E-04  5.334929675962E-04  5.650979277451E-04  5.724280793108E-04
  5.577467224884E-04  5.245638831580E-04  4.771157411464E-04  4.199196071873E-04
  3.574081732555E-04  2.936441214371E-04  2.321135614056E-04  1.755942774739E-04
  1.260925032870E-04  8.483999940876E-05  5.234166880985E-05  2.846287378484E-05
  1.254506049282E-05  3.538275099955E-06  1.396623693533E-07  9.280393504751E-07
  4.486071813647E-06  9.503362203335E-06  1.485577692936E-05  1.965847426288E-05
  2.329221049624E-05  2.540447041374E-05  2.588866707585E-05  2.484598246542E-05
  2.253529826804E-05  1.931705167914E-05  1.559673880400E-05  1.177321100990E-05
  8.195937727220E-06  5.134144955944E-06  2.759308174493E-06  1.141020390159E-06
  2.549097896789E-07  1.727123493143E-10  2.235164605681E-07  7.459363027304E-07
  1.388801800746E-06  1.996172895245E-06  2.451035748149E-06  2.684135754701E-06
  2.675160153235E-06  2.447046995663E-06  2.055041984342E-06  1.572687151782E-06
  1.077143061017E-06  6.361057174549E-07  2.981185880057E-07  8.738298070564E-08
  3.354243762115E-09  0.000000000000E+00  0.000000000000E+00  0.000000000000E+00
  0.000000000000E+00  0.000000000000E+00  0.000000000000E+00  0.000000000000E+00
  0.000000000000E+00  0.000000000000E+00  0.000000000000E+00  0.000000000000E+00
  0.000000000000E+00  0.000000000000E+00  0.000000000000E+00  0.000000000000E+00
  0.000000000000E+00  0.000000000000E+00  0.000000000000E+00  0.000000000000E+00
  0.000000000000E+00  0.000000000000E+00  0.000000000000E+00  0.000000000000E+00
  0.000000000000E+00  0.000000000000E+00  0.000000000000E+00  0.000000000000E+00
  0.000000000000E+00  0.000000000000E+00  0.000000000000E+00  0.000000000000E+00
  0.000000000000E+00  0.000000000000E+00  0.000000000000E+00  0.000000000000E+00
  0.000000000000E+00  0.000000000000E+00  0.000000000000E+00  0.000000000000E+00
  0.000000000000E+00  0.000000000000E+00  0.000000000000E+00  0.000000000000E+00
  0.000000000000E+00  0.000000000000E+00
</data>
</radfunc>
</pseudocore-charge>
<semilocal-potentials set="scalar_relativistic">
<slps n="4" l="s" rc="1.60520203274" eref="-1.76388584328">
<radfunc>
<data npts="290">
  4.609530358143E+01  4.606463491991E+01  4.597312434666E+01  4.582101354423E+01
  4.561068356241E+01  4.533614908384E+01  4.498955410874E+01  4.459713913472E+01
  4.416150356122E+01  4.366080943276E+01  4.310568060947E+01  4.251311549086E+01
  4.181157678352E+01  4.109542223153E+01  4.027155418713E+01  3.947054584882E+01
  3.857403678636E+01  3.774874708262E+01  3.684819255644E+01  3.586890015537E+01
  3.480798219176E+01  3.389901622670E+01  3.293576241800E+01  3.191799773039E+01
  3.084599968738E+01  2.972059902019E+01  2.854322529013E+01  2.762730486641E+01
  2.668441052033E+01  2.571586676344E+01  2.472320899309E+01  2.370818000028E+01
  2.267272316117E+01  2.161897223377E+01  2.054923777330E+01  1.946599027819E+01
  1.837184028108E+01  1.726951569867E+01  1.653148095405E+01  1.579191817038E+01
  1.505168962427E+01  1.431166311487E+01  1.357270815634E+01  1.283569216632E+01
  1.210147668796E+01  1.137091368248E+01  1.064484192840E+01  9.924083561586E+00
  9.209440788360E+00  8.501692801104E+00  7.801592922712E+00  7.109866002865E+00
  6.427206085370E+00  5.754274361976E+00  5.091697424077E+00  4.440065819750E+00
  3.799932919678E+00  3.171814091689E+00  2.556186180112E+00  1.953487282785E+00
  1.364116815557E+00  7.884358514302E-01  2.267677191474E-01 -3.206011559000E-01
 -8.534201871795E-01 -1.371473358872E+00 -1.874577774872E+00 -2.120475706757E+00
 -2.362582046257E+00 -2.600882505169E+00 -2.835364538781E+00 -3.066017284958E+00
 -3.292831501875E+00 -3.515799504554E+00 -3.734915100367E+00 -3.950173523655E+00
 -4.161571369619E+00 -4.369106527630E+00 -4.572778114101E+00 -4.772586405073E+00
 -4.968532768626E+00 -5.160619597288E+00 -5.348850240524E+00 -5.533228937477E+00
 -5.713760750037E+00 -5.890451496389E+00 -6.063307685129E+00 -6.232336450064E+00
 -6.397545485797E+00 -6.558942984186E+00 -6.716537571788E+00 -6.870338248352E+00
 -7.020354326463E+00 -7.166595372404E+00 -7.309071148317E+00 -7.447791555724E+00
 -7.582766580475E+00 -7.714006239189E+00 -7.841520527228E+00 -7.965319368273E+00
 -8.085412565526E+00 -8.201809754607E+00 -8.314520358159E+00 -8.423553542220E+00
 -8.528918174384E+00 -8.630622783781E+00 -8.728675522928E+00 -8.823084131461E+00
 -8.913855901800E+00 -9.000997646788E+00 -9.084515669338E+00 -9.164415734157E+00
 -9.240703041600E+00 -9.313382203745E+00 -9.382457222771E+00 -9.447931471766E+00
 -9.509807678091E+00 -9.568087909491E+00 -9.622773563121E+00 -9.673865357758E+00
 -9.721363329465E+00 -9.765266831035E+00 -9.805574535628E+00 -9.842284445028E+00
 -9.875393903060E+00 -9.904899614766E+00 -9.930797672036E+00 -9.953083586481E+00
 -9.971752330442E+00 -9.986798387157E+00 -9.998215811232E+00 -1.000599830069E+01
 -1.001013928208E+01 -1.001063201016E+01 -1.000746968410E+01 -1.000064558201E+01
 -9.990153216171E+00 -9.975986511230E+00 -9.958140008152E+00 -9.936609096773E+00
 -9.911390280158E+00 -9.882481474238E+00 -9.849882346442E+00 -9.813594697373E+00
 -9.773622889814E+00 -9.729974329637E+00 -9.682660003412E+00 -9.631695077717E+00
 -9.577099565274E+00 -9.518899063092E+00 -9.457125567720E+00 -9.391818372525E+00
 -9.323025051442E+00 -9.250802533065E+00 -9.175218267901E+00 -9.096351490344E+00