<?xml version="1.0" encoding="UTF-8" ?>
<psml version="1.1" energy_unit="hartree" length_unit="bohr"
 uuid="9adc6700-23d2-11e8-579c-8d206e0f3dab"
 xmlns="http://esl.cecam.org/PSML/ns/1.1">
<provenance creator="ONCVPSP-3.3.0+psml-3.3.0-73 (scalar-relativistic)"
 date="2018-03-09">
<annotation action="semilocal-pseudopotential-generation"
 action-cont="projectors-generation" />
<input-file name="oncvpsp-input">
<![CDATA[# atsym z nc nv iexc psfile
Zn 30 3 4 -001012 upf
# n l f
1 0 2.0
2 0 2.0
2 1 6.0
3 0 2.0
3 1 6.0
3 2 10.0
4 0 2.0
# lmax
2
# l rc ep ncon nbas qcut
0 1.35 0.0 4 9 8.8
1 1.65 0.0 4 9 9.0
2 1.85 0.0 4 9 9.0
# lloc lpopt rc5 dvloc0
4 5 1.3 0.0
# l nproj debl
0 2 1.0
1 2 1.0
2 2 1.0
# icmod fcfact rcfact
3 2.5 1.65
# epsh1 epsh2 depsh
-12.0 12.0 0.02
# rlmax drl
6.0 0.01
 0
]]>
</input-file>
</provenance>
<pseudo-atom-spec atomic-label="Zn" atomic-number="30" z-pseudo="20"
 flavor="Hamann&apos;s oncvpsp" relativity="scalar" spin-dft="no"
 core-corrections="yes">
<annotation pseudo-energy="-206.506870223" />
<exchange-correlation>
<annotation oncvpsp-xc-code="-1012" oncvpsp-xc-type="libxc-interface" />
<libxc-info number-of-functionals="2">
<functional name="Slater exchange (LDA)" type="exchange" id="1" />
<functional name="Perdew &amp; Wang (LDA)" type="correlation" id="12" />
</libxc-info>
</exchange-correlation>
<valence-configuration total-valence-charge="20">
<shell n="3" l="s" occupation="2" />
<shell n="3" l="p" occupation="6" />
<shell n="3" l="d" occupation="10" />
<shell n="4" l="s" occupation="2" />
</valence-configuration>
</pseudo-atom-spec>
<grid npts="457">
<annotation type="sampled from oncvpsp log grid"
 recipe="r(i:1..N) = r1*exp(a*(i-1)) + r=0; resampled"
 recipe-cont="r1: scale; a: step" scale="0.166666666667E-04"
 step="0.119285708653E-01" delta="0.500000000000E-02" rmax="44.2266713690" />
<grid-data>
  0.000000000000E+00  5.050265833728E-03  1.008750967224E-02  1.513287306711E-02
  2.014900893097E-02  2.527454970839E-02  3.058944708272E-02  3.572056252801E-02
  4.072901687140E-02  4.588904843083E-02  5.108973672188E-02  5.620536399126E-02
  6.183322021382E-02  6.721797924334E-02  7.307167114917E-02  7.849321447608E-02
  8.431700851907E-02  8.949891128336E-02  9.499928023531E-02  1.008376874737E-01
  1.070349079473E-01  1.122658037340E-01  1.177523382768E-01  1.235070048802E-01
  1.295429074081E-01  1.358737901225E-01  1.425140689802E-01  1.477063878056E-01
  1.530878821627E-01  1.586654444216E-01  1.644462180666E-01  1.704376068463E-01
  1.766472842551E-01  1.830832033616E-01  1.897536069942E-01  1.966670382985E-01
  2.038323516784E-01  2.112587241371E-01  2.163593547726E-01  2.215831350343E-01
  2.269330382465E-01  2.324121095219E-01  2.380234674942E-01  2.437703060934E-01
  2.496558963637E-01  2.556835883255E-01  2.618568128821E-01  2.681790837723E-01
  2.746539995709E-01  2.812852457365E-01  2.880765967096E-01  2.950319180606E-01
  3.021551686902E-01  3.094504030831E-01  3.169217736151E-01  3.245735329173E-01
  3.324100362960E-01  3.404357442124E-01  3.486552248206E-01  3.570731565687E-01
  3.656943308609E-01  3.745236547852E-01  3.835661539063E-01  3.928269751262E-01
  4.023113896137E-01  4.120247958045E-01  4.219727224744E-01  4.270363951441E-01
  4.321608318858E-01  4.373467618685E-01  4.425949230109E-01  4.479060620870E-01
  4.532809348321E-01  4.587203060501E-01  4.642249497227E-01  4.697956491193E-01
  4.754331969088E-01  4.811383952717E-01  4.869120560149E-01  4.927550006871E-01
  4.986680606954E-01  5.046520774237E-01  5.107079023528E-01  5.168363971810E-01
  5.230384339472E-01  5.293148951546E-01  5.356666738964E-01  5.420946739832E-01
  5.485998100710E-01  5.551830077918E-01  5.618452038853E-01  5.685873463319E-01
  5.754103944879E-01  5.823153192218E-01  5.893031030524E-01  5.963747402891E-01
  6.035312371725E-01  6.107736120186E-01  6.181028953628E-01  6.255201301072E-01
  6.330263716685E-01  6.406226881285E-01  6.483101603860E-01  6.560898823107E-01
  6.639629608984E-01  6.719305164292E-01  6.799936826263E-01  6.881536068178E-01
  6.964114500997E-01  7.047683875009E-01  7.132256081509E-01  7.217843154487E-01
  7.304457272341E-01  7.392110759609E-01  7.480816088724E-01  7.570585881789E-01
  7.661432912370E-01  7.753370107319E-01  7.846410548606E-01  7.940567475190E-01
  8.035854284892E-01  8.132284536311E-01  8.229871950746E-01  8.328630414155E-01
  8.428573979125E-01  8.529716866875E-01  8.632073469277E-01  8.735658350908E-01
  8.840486251119E-01  8.946572086133E-01  9.053930951166E-01  9.162578122580E-01
  9.272529060051E-01  9.383799408772E-01  9.496405001677E-01  9.610361861697E-01
  9.725686204038E-01  9.842394438486E-01  9.960503171748E-01  1.008002920981E+00
  1.020098956033E+00  1.032340143505E+00  1.044728225227E+00  1.057264963930E+00
  1.069952143497E+00  1.082791569219E+00  1.095785068050E+00  1.108934488866E+00
  1.122241702733E+00  1.135708603165E+00  1.149337106403E+00  1.163129151680E+00
  1.177086701500E+00  1.191211741918E+00  1.205506282821E+00  1.219972358215E+00
  1.234612026514E+00  1.249427370832E+00  1.264420499282E+00  1.279593545273E+00
  1.294948667817E+00  1.310488051830E+00  1.326213908452E+00  1.342128475354E+00
  1.358234017058E+00  1.374532825263E+00  1.391027219166E+00  1.407719545796E+00
  1.424612180345E+00  1.441707526510E+00  1.459008016828E+00  1.476516113030E+00
  1.494234306386E+00  1.512165118063E+00  1.530311099479E+00  1.548674832673E+00
  1.567258930665E+00  1.586066037833E+00  1.605098830287E+00  1.624360016251E+00
  1.643852336446E+00  1.663578564483E+00  1.683541507257E+00  1.703744005344E+00
  1.724188933408E+00  1.744879200609E+00  1.765817751016E+00  1.787007564028E+00
  1.808451654797E+00  1.830153074654E+00  1.852114911550E+00  1.874340290489E+00
  1.896832373975E+00  1.919594362462E+00  1.942629494812E+00  1.965941048750E+00
  1.989532341335E+00  2.013406729431E+00  2.037567610184E+00  2.062018421506E+00
  2.086762642564E+00  2.111803794275E+00  2.137145439806E+00  2.162791185084E+00
  2.188744679305E+00  2.215009615457E+00  2.241589730842E+00  2.268488807612E+00
  2.295710673303E+00  2.323259201383E+00  2.351138311800E+00  2.379351971541E+00
  2.407904195200E+00  2.436799045542E+00  2.466040634089E+00  2.495633121698E+00
  2.525580719158E+00  2.555887687788E+00  2.586558340041E+00  2.617597040122E+00
  2.649008204603E+00  2.680796303059E+00  2.712965858695E+00  2.745521449000E+00
  2.778467706388E+00  2.811809318864E+00  2.845551030691E+00  2.879697643059E+00
  2.914254014776E+00  2.949225062953E+00  2.984615763708E+00  3.020431152873E+00
  3.056676326707E+00  3.093356442628E+00  3.130476719939E+00  3.168042440579E+00
  3.206058949866E+00  3.244531657264E+00  3.283466037151E+00  3.322867629597E+00
  3.362742041152E+00  3.403094945646E+00  3.443932084994E+00  3.485259270014E+00
  3.527082381254E+00  3.569407369829E+00  3.612240258267E+00  3.655587141366E+00
  3.699454187062E+00  3.743847637307E+00  3.788773808955E+00  3.834239094662E+00
  3.880249963798E+00  3.926812963364E+00  3.973934718924E+00  4.021621935551E+00
  4.069881398778E+00  4.118719975563E+00  4.168144615270E+00  4.218162350653E+00
  4.268780298861E+00  4.320005662447E+00  4.371845730397E+00  4.424307879162E+00
  4.477399573712E+00  4.531128368596E+00  4.585501909019E+00  4.640527931927E+00
  4.696214267111E+00  4.752568838316E+00  4.809599664376E+00  4.867314860348E+00
  4.925722638672E+00  4.984831310336E+00  5.044649286061E+00  5.105185077493E+00
  5.166447298423E+00  5.228444666004E+00  5.291186001996E+00  5.354680234020E+00
  5.418936396829E+00  5.483963633590E+00  5.549771197194E+00  5.616368451560E+00
  5.683764872979E+00  5.751970051454E+00  5.820993692072E+00  5.890845616377E+00
  5.961535763773E+00  6.033074192938E+00  6.105471083254E+00  6.178736736253E+00
  6.252881577088E+00  6.327916156013E+00  6.403851149885E+00  6.480697363684E+00
  6.558465732048E+00  6.637167320832E+00  6.716813328682E+00  6.797415088627E+00
  6.878984069690E+00  6.961531878526E+00  7.045070261069E+00  7.129611104201E+00
  7.215166437452E+00  7.301748434701E+00  7.389369415918E+00  7.478041848909E+00
  7.567778351096E+00  7.658591691309E+00  7.750494791605E+00  7.843500729104E+00
  7.937622737853E+00  8.032874210707E+00  8.129268701236E+00  8.226819925651E+00
  8.325541764758E+00  8.425448265935E+00  8.526553645127E+00  8.628872288868E+00
  8.732418756335E+00  8.837207781411E+00  8.943254274788E+00  9.050573326085E+00
  9.159180205998E+00  9.269090368470E+00  9.380319452892E+00  9.492883286326E+00
  9.606797885762E+00  9.722079460391E+00  9.838744413916E+00  9.956809346883E+00
  1.007629105905E+01  1.019720655175E+01  1.031957303038E+01  1.044340790674E+01
  1.056872880162E+01  1.069555354724E+01  1.082390018981E+01  1.095378699208E+01
  1.108523243599E+01  1.121825522522E+01  1.135287428792E+01  1.148910877938E+01
  1.162697808473E+01  1.176650182175E+01  1.190769984361E+01  1.205059224173E+01
  1.219519934863E+01  1.234154174082E+01  1.248964024171E+01  1.263951592461E+01
  1.279119011570E+01  1.294468439709E+01  1.310002060986E+01  1.325722085717E+01
  1.341630750746E+01  1.357730319755E+01  1.374023083592E+01  1.390511360595E+01
  1.407197496922E+01  1.424083866885E+01  1.441172873288E+01  1.458466947768E+01
  1.475968551141E+01  1.493680173754E+01  1.511604335839E+01  1.529743587870E+01
  1.548100510924E+01  1.566677717055E+01  1.585477849660E+01  1.604503583856E+01
  1.623757626862E+01  1.643242718384E+01  1.662961631005E+01  1.682917170577E+01
  1.703112176624E+01  1.723549522743E+01  1.744232117016E+01  1.765162902420E+01
  1.786344857249E+01  1.807780995536E+01  1.829474367483E+01  1.851428059893E+01
  1.873645196611E+01  1.896128938971E+01  1.918882486238E+01  1.941909076073E+01
  1.965211984986E+01  1.988794528806E+01  2.012660063152E+01  2.036811983909E+01
  2.061253727716E+01  2.085988772449E+01  2.111020637718E+01  2.136352885371E+01
  2.161989119995E+01  2.187932989435E+01  2.214188185309E+01  2.240758443532E+01
  2.267647544855E+01  2.294859315393E+01  2.322397627178E+01  2.350266398704E+01
  2.378469595488E+01  2.407011230634E+01  2.435895365402E+01  2.465126109787E+01
  2.494707623104E+01  2.524644114581E+01  2.554939843956E+01  2.585599122084E+01
  2.616626311549E+01  2.648025827287E+01  2.679802137215E+01  2.711959762861E+01
  2.744503280016E+01  2.777437319376E+01  2.810766567208E+01  2.844495766015E+01
  2.878629715207E+01  2.913173271789E+01  2.948131351051E+01  2.983508927264E+01
  3.019311034391E+01  3.055542766803E+01  3.092209280005E+01  3.129315791365E+01
  3.166867580861E+01  3.204869991832E+01  3.243328431734E+01  3.282248372915E+01
  3.321635353390E+01  3.361494977630E+01  3.401832917362E+01  3.442654912370E+01
  3.483966771319E+01  3.525774372574E+01  3.568083665045E+01  3.610900669026E+01
  3.654231477054E+01  3.698082254779E+01  3.742459241836E+01  3.787368752738E+01
  3.832817177771E+01  3.878810983904E+01  3.925356715711E+01  3.972460996300E+01
  4.020130528255E+01  4.068372094594E+01  4.117192559730E+01  4.166598870446E+01
  4.216598056892E+01  4.267197233574E+01  4.318403600377E+01  4.370224443582E+01
  4.422667136905E+01
</grid-data>
</grid>
<valence-charge total-charge="20" is-unscreening-charge="yes"
 rescaled-to-z-pseudo="no">
<radfunc>
<data npts="457">
  2.744509797760E+01  2.745115045148E+01  2.746924066950E+01  2.749941282697E+01
  2.754134475471E+01  2.759644943520E+01  2.766662797573E+01  2.774691726295E+01
  2.783710298732E+01  2.794215186274E+01  2.806040206743E+01  2.818874153296E+01
  2.834358138439E+01  2.850498378228E+01  2.869496950041E+01  2.888425669100E+01
  2.910166215358E+01  2.930717872063E+01  2.953756288198E+01  2.979565186597E+01
  3.008455879132E+01  3.034014933661E+01  3.061951340667E+01  3.092465268763E+01
  3.125769097516E+01  3.162087041598E+01  3.201654419084E+01  3.233609591475E+01
  3.267636926901E+01  3.303845049539E+01  3.342343925381E+01  3.383243988577E+01
  3.426655069570E+01  3.472685094252E+01  3.521438519789E+01  3.573014469079E+01
  3.627504522041E+01  3.684990118236E+01  3.725012395483E+01  3.766412971023E+01
  3.809204297438E+01  3.853394442727E+01  3.898986462789E+01  3.945977716574E+01
  3.994359120862E+01  4.044114341834E+01  4.095218920894E+01  4.147639332617E+01
  4.201331973276E+01  4.256242079101E+01  4.312302574345E+01  4.369432850359E+01
  4.427537478272E+01  4.486504859516E+01  4.546205820458E+01  4.606492159724E+01
  4.667195159557E+01  4.728124075724E+01  4.789064624131E+01  4.849777486411E+01
  4.909996861422E+01  4.969429094700E+01  5.027751423585E+01  5.084610881842E+01
  5.139623414131E+01  5.192373257507E+01  5.242412654131E+01  5.266267280823E+01
  5.289261966383E+01  5.311331872326E+01  5.332410272272E+01  5.352428602795E+01
  5.371316525180E+01  5.389001998846E+01  5.405411367170E+01  5.420469456455E+01
  5.434099688782E+01  5.446224209485E+01  5.456764029961E+01  5.465639186504E+01
  5.472768915831E+01  5.478071847915E+01  5.481466216680E+01  5.482870089085E+01
  5.482201613002E+01  5.479379284231E+01  5.474322232909E+01  5.466950529405E+01
  5.457185509720E+01  5.444950120212E+01  5.430169281347E+01  5.412770269960E+01
  5.392683119344E+01  5.369841036247E+01  5.344180833652E+01  5.315643377945E+01
  5.284174048824E+01  5.249723210042E+01  5.212246688767E+01  5.171706261048E+01
  5.128070140579E+01  5.081313467631E+01  5.031418794707E+01  4.978376565157E+01
  4.922185580695E+01  4.862853453438E+01  4.800397037817E+01  4.734842837450E+01
  4.666227381825E+01  4.594597567433E+01  4.520010957855E+01  4.442536037166E+01
  4.362252410996E+01  4.279250949571E+01  4.193633867164E+01  4.105514732528E+01
  4.015018405151E+01  3.922280892505E+01  3.827449123907E+01  3.730680637158E+01
  3.632143174779E+01  3.532014187438E+01  3.430480243007E+01  3.327736340704E+01
  3.223985130834E+01  3.119436041824E+01  3.014304317518E+01  2.908809969026E+01
  2.803176646803E+01  2.697630440072E+01  2.592398612135E+01  2.487708281537E+01
  2.383785060421E+01  2.280851662747E+01  2.179126496217E+01  2.078822252812E+01
  1.980144513765E+01  1.883290385409E+01  1.788447182819E+01  1.695791178290E+01
  1.605486431573E+01  1.517683718287E+01  1.432519572159E+01  1.350115455564E+01
  1.270577071352E+01  1.193993827133E+01  1.120438461018E+01  1.049966835451E+01
  9.826179030391E+00  9.184138455368E+00  8.573603840955E+00  7.994472559571E+00
  7.446488497473E+00  6.929249886819E+00  6.442218483180E+00  5.984729930890E+00
  5.556005138133E+00  5.155162467397E+00  4.781230535362E+00  4.433161409862E+00
  4.109843990524E+00  3.810117364001E+00  3.532783934288E+00  3.276622142937E+00
  3.040398612570E+00  2.822879678950E+00  2.622842476942E+00  2.439085178679E+00
  2.270435302389E+00  2.115756911105E+00  1.973956704993E+00  1.843989009807E+00
  1.724859700028E+00  1.615629112168E+00  1.515414019567E+00  1.423388752346E+00
  1.338785553991E+00  1.260894269650E+00  1.189061461126E+00  1.122689040229E+00
  1.061232506282E+00  1.004198866019E+00  9.511441158321E-01  9.016698621607E-01
  8.554196541744E-01  8.120769916209E-01  7.713631818733E-01  7.330351070162E-01
  6.968829012416E-01  6.627275492415E-01  6.304184141921E-01  5.998296418240E-01
  5.708524126826E-01  5.433858521828E-01  5.173352795804E-01  4.926131045587E-01
  4.691377704722E-01  4.468334534799E-01  4.256296703389E-01  4.054609163672E-01
  3.862663230497E-01  3.679893345974E-01  3.505774029332E-01  3.339817005127E-01
  3.181568503604E-01  3.030606726760E-01  2.886539473482E-01  2.749001917052E-01
  2.617654528204E-01  2.492181136958E-01  2.372287126482E-01  2.257697752194E-01
  2.148156579730E-01  2.043424035110E-01  1.943276060933E-01  1.847502872457E-01
  1.755907807636E-01  1.668306265417E-01  1.584524726780E-01  1.504399853262E-01
  1.427777657898E-01  1.354512743783E-01  1.284467605637E-01  1.217511990039E-01
  1.153522310182E-01  1.092381111226E-01  1.033976582572E-01  9.782021135553E-02
  9.249558892788E-02  8.741405235022E-02  8.256627256862E-02  7.794329994797E-02
  7.353653701033E-02  6.933771382550E-02  6.533886583147E-02  6.153231387772E-02
  5.791064629822E-02  5.446670283440E-02  5.119356024084E-02  4.808451941846E-02
  4.513309393077E-02  4.233299976958E-02  3.967814624641E-02  3.716262789466E-02
  3.478071727677E-02  3.252685859822E-02  3.039566203822E-02  2.838189871386E-02
  2.648049620120E-02  2.468653454296E-02  2.299524267847E-02  2.140199523683E-02
  1.990230963955E-02  1.849184346354E-02  1.716639202009E-02  1.592188610944E-02
  1.475438991474E-02  1.366009900268E-02  1.263533840185E-02  1.167656073285E-02
  1.078034436741E-02  9.943391596736E-03  9.162526791692E-03  8.434694540206E-03
  7.756957749548E-03  7.126495703259E-03  6.540602064621E-03  5.996682820377E-03
  5.492254160211E-03  5.024940289066E-03  4.592471170850E-03  4.192680203466E-03
  3.823501826261E-03  3.482969062143E-03  3.169210997569E-03  2.880450204476E-03
  2.615000109002E-03  2.371262312468E-03  2.147723870671E-03  1.942954537978E-03
  1.755603983038E-03  1.584398983257E-03  1.428140605296E-03  1.285701378981E-03
  1.156022472052E-03  1.038110873083E-03  9.310365898407E-04  8.339298701286E-04
  7.459784519681E-04  6.664248496634E-04  5.945636819824E-04  5.297390483198E-04
  4.713419583134E-04  4.188078199601E-04  3.716139908338E-04  3.292773965449E-04
  2.913522201098E-04  2.574276654191E-04  2.271257975121E-04  2.000994618881E-04
  1.760302846161E-04  1.546267545405E-04  1.356223884405E-04  1.187739795691E-04
  1.038599295902E-04  9.067866355044E-05  7.904712715727E-05  6.879936530376E-05
  5.978518047177E-05  5.186886936727E-05  4.492803589064E-05  3.885247832461E-05
  3.354314842952E-05  2.891117997219E-05  2.487698407875E-05  2.136940869227E-05
  1.832495933338E-05  1.568707830263E-05  1.340547942824E-05  1.143553544842E-05
  9.737715123290E-06  8.277067195611E-06  7.022748359622E-06  5.947592458014E-06
  5.027718121694E-06  4.242172703311E-06  3.572607864369E-06  3.002990079541E-06
  2.519334846963E-06  2.109468364199E-06  1.762815210150E-06  1.470207444863E-06
  1.223713606965E-06  1.016486156618E-06  8.426256883688E-07  6.970603505094E-07
  5.754390171541E-07  4.740368656979E-07  3.896721150625E-07  3.196327787600E-07
  2.616123809939E-07  2.136536735045E-07  1.740994754969E-07  1.415498386567E-07
  1.148248139233E-07  9.293216636748E-08  7.503944928284E-08  6.044990853697E-08
  4.858174350047E-08  3.895030163012E-08  3.115283023113E-08  2.485545126618E-08
  1.978206353981E-08  1.570491139710E-08  1.243659046921E-08  9.823289212640E-09
  7.739090257803E-09  6.081178135545E-09  4.765820011018E-09  3.725003837771E-09
  2.903634056626E-09  2.257198798635E-09  1.749834692752E-09  1.352725998708E-09
  1.042784043518E-09  8.015609842571E-10  6.143588858184E-10  4.695011150733E-10
  3.577382252386E-10  2.717649390400E-10  2.058286289332E-10  1.554129202101E-10
  1.169827824392E-10  8.777979229642E-11  6.565820482047E-11  4.895411192106E-11
  3.638134175431E-11  2.694889982033E-11  1.989570669239E-11  1.463917792614E-11
  1.073484461863E-11  7.844750379595E-12  5.712801048176E-12  4.145603457356E-12
  2.997622600868E-12  2.159724266128E-12  1.550362306836E-12  1.108824413468E-12
  7.900743255695E-13  5.608275948747E-13  3.965769568849E-13  2.793459811712E-13
  1.959991354220E-13  1.369753233709E-13  9.534246706453E-14  6.609452327668E-14
  4.563084473667E-14  3.137213927616E-14  2.147834105560E-14  1.464220303743E-14
  9.938916754361E-15  6.717013090953E-15  4.519501010402E-15  3.027392882661E-15
  2.018750341645E-15  1.340011216463E-15  8.853651490928E-16  5.822378921457E-16
  3.810817539619E-16  2.482280103475E-16  1.609064130172E-16  1.037912037331E-16
  6.661725856992E-17  4.254279815902E-17  2.703038258236E-17  1.708593001507E-17
  1.074381356704E-17  6.720235765771E-18  4.181087225030E-18  2.587287863854E-18
  1.592292598474E-18  9.745296500335E-19  5.931061145700E-19  3.589266170689E-19
  2.159659324693E-19  1.291936549252E-19  7.683217599759E-20  4.542138429999E-20
  2.669080945946E-20  1.558890652942E-20  9.048787416628E-21  0.000000000000E+00
  0.000000000000E+00  0.000000000000E+00  0.000000000000E+00  0.000000000000E+00
  0.000000000000E+00  0.000000000000E+00  0.000000000000E+00  0.000000000000E+00
  0.000000000000E+00  0.000000000000E+00  0.000000000000E+00  0.000000000000E+00
  0.000000000000E+00  0.000000000000E+00  0.000000000000E+00  0.000000000000E+00
  0.000000000000E+00  0.000000000000E+00  0.000000000000E+00  0.000000000000E+00
  0.000000000000E+00  0.000000000000E+00  0.000000000000E+00  0.000000000000E+00
  0.000000000000E+00
</data>
</radfunc>
</valence-charge>
<pseudocore-charge matching-radius="0.365694330861"
 number-of-continuous-derivatives="4">
<annotation model-charge-form="Teter function with specified parameters" />
<radfunc>
<data npts="290">
  1.318978115217E+02  1.318686217098E+02  1.317813892143E+02  1.316359410375E+02
  1.314338959466E+02  1.311685424263E+02  1.308308698026E+02  1.304449162814E+02
  1.300118582422E+02  1.295080530945E+02  1.289417369774E+02  1.283280608820E+02
  1.275889946603E+02  1.268201445887E+02  1.259171449001E+02  1.250196194598E+02
  1.239914129996E+02  1.230220259118E+02  1.219383264238E+02  1.207280386183E+02
  1.193778906579E+02  1.181875239892E+02  1.168908017229E+02  1.154796235254E+02
  1.139455661435E+02  1.122799387214E+02  1.104738574995E+02  1.090217225506E+02
  1.074817469563E+02  1.058501907636E+02  1.041233999410E+02  1.022978547000E+02
  1.003702249311E+02  9.833743324842E+01  9.619672607622E+01  9.394575310389E+01
  9.158265529540E+01  8.910616144615E+01  8.739185019962E+01  8.562688960341E+01
  8.381147675251E+01  8.194599938461E+01  8.003105241322E+01  7.806745475752E+01
  7.605626632037E+01  7.399880493820E+01  7.189666309596E+01  6.975172416827E+01
  6.756617791346E+01  6.534253491184E+01  6.308363960318E+01  6.079268154167E+01
  5.847320445134E+01  5.612911263089E+01  5.376467422636E+01  5.138452086512E+01
  4.899364312476E+01  4.659738130154E+01  4.420141094328E+01  4.181172262710E+01
  3.943459549302E+01  3.707656409553E+01  3.474437820718E+01  3.244495530594E+01
  3.018532560233E+01  2.797256961587E+01  2.581374849437E+01  2.475674611695E+01
  2.371582748409E+01  2.269183469155E+01  2.168559320287E+01  2.069790899309E+01
  1.972956563949E+01  1.878132137184E+01  1.785390609595E+01  1.694801840554E+01
  1.606432259861E+01  1.520344571582E+01  1.436597461944E+01  1.355245313245E+01
  1.276337925857E+01  1.199920250467E+01  1.126032132800E+01  1.054708073106E+01
  9.859770027635E+00  9.198620803651E+00  8.563805096582E+00  7.955433816982E+00
  7.373555435260E+00  6.818154956116E+00  6.289153202021E+00  5.786406425799E+00
  5.309706270706E+00  4.858780094398E+00  4.433291670817E+00  4.032842281334E+00
  3.656972203404E+00  3.305162601631E+00  2.976837822359E+00  2.671368088980E+00
  2.388072590712E+00  2.126222953205E+00  1.885047074513E+00  1.663733305164E+00
  1.461434946113E+00  1.277275033450E+00  1.110351373876E+00  9.597417903056E-01
  8.245095325264E-01  7.037088037854E-01  5.963903505899E-01  5.016070599628E-01
  4.184195060252E-01  3.459013861619E-01  2.831447862703E-01  2.292652147611E-01
  1.834063461615E-01  1.447444174065E-01  1.124922232369E-01  8.590266156058E-02
  6.427178517221E-02  4.694132281986E-02  3.330064019167E-02  2.278811987057E-02
  1.489194853934E-02  9.150309549877E-03  5.150989207813E-03  2.530415547277E-03
  9.721587377471E-04  2.049323154950E-04  1.438930976300E-07  1.690525957863E-04
  5.595979313062E-04  1.052970863492E-03  1.560002296814E-03  2.017446793143E-03
  2.384239982359E-03  2.637806700451E-03  2.770493362102E-03  2.786192490577E-03
  2.697219802939E-03  2.521494978069E-03  2.280066489338E-03  1.995009004946E-03
  1.687709250244E-03  1.377543339987E-03  1.080935908523E-03  8.107793881089E-04
  5.761809950524E-04  3.824958297518E-04  2.315973700813E-04  1.223318439923E-04
  5.110070822256E-05  1.251581516949E-05  7.476578109330E-08  6.809231941796E-06
  2.586636318419E-05  5.099232510534E-05  7.689700733748E-05  9.948937532167E-05
  1.159831787157E-04  1.248821364468E-04  1.258617148908E-04  1.195707194908E-04
  1.073797852855E-04  9.110529842720E-05  7.273631389429E-05  5.418884871027E-05
  3.710689752147E-05  2.272316103852E-05  1.178542766307E-05  4.547486884376E-06
  8.170512726248E-07  4.801784665938E-08  1.460968667213E-06  4.174368713882E-06
  7.329523663912E-06  1.019484276975E-05  1.223893530982E-05  1.316700853717E-05
  1.292028261523E-05  1.164302119367E-05  9.625683341088E-06  7.235163150523E-06
  4.843832814809E-06  2.768122476775E-06  1.224883166212E-06  3.102315542794E-07
  1.561670415695E-09  0.000000000000E+00  0.000000000000E+00  0.000000000000E+00
  0.000000000000E+00  0.000000000000E+00  0.000000000000E+00  0.000000000000E+00
  0.000000000000E+00  0.000000000000E+00  0.000000000000E+00  0.000000000000E+00
  0.000000000000E+00  0.000000000000E+00  0.000000000000E+00  0.000000000000E+00
  0.000000000000E+00  0.000000000000E+00  0.000000000000E+00  0.000000000000E+00
  0.000000000000E+00  0.000000000000E+00  0.000000000000E+00  0.000000000000E+00
  0.000000000000E+00  0.000000000000E+00  0.000000000000E+00  0.000000000000E+00
  0.000000000000E+00  0.000000000000E+00  0.000000000000E+00  0.000000000000E+00
  0.000000000000E+00  0.000000000000E+00  0.000000000000E+00  0.000000000000E+00
  0.000000000000E+00  0.000000000000E+00  0.000000000000E+00  0.000000000000E+00
  0.000000000000E+00  0.000000000000E+00  0.000000000000E+00  0.000000000000E+00
  0.000000000000E+00  0.000000000000E+00  0.000000000000E+00  0.000000000000E+00
  0.000000000000E+00  0.000000000000E+00  0.000000000000E+00  0.000000000000E+00
  0.000000000000E+00  0.000000000000E+00  0.000000000000E+00  0.000000000000E+00
  0.000000000000E+00  0.000000000000E+00  0.000000000000E+00  0.000000000000E+00
  0.000000000000E+00  0.000000000000E+00  0.000000000000E+00  0.000000000000E+00
  0.000000000000E+00  0.000000000000E+00  0.000000000000E+00  0.000000000000E+00
  0.000000000000E+00  0.000000000000E+00  0.000000000000E+00  0.000000000000E+00
  0.000000000000E+00  0.000000000000E+00  0.000000000000E+00  0.000000000000E+00
  0.000000000000E+00  0.000000000000E+00  0.000000000000E+00  0.000000000000E+00
  0.000000000000E+00  0.000000000000E+00  0.000000000000E+00  0.000000000000E+00
  0.000000000000E+00  0.000000000000E+00  0.000000000000E+00  0.000000000000E+00
  0.000000000000E+00  0.000000000000E+00  0.000000000000E+00  0.000000000000E+00
  0.000000000000E+00  0.000000000000E+00  0.000000000000E+00  0.000000000000E+00
  0.000000000000E+00  0.000000000000E+00  0.000000000000E+00  0.000000000000E+00
  0.000000000000E+00  0.000000000000E+00
</data>
</radfunc>
</pseudocore-charge>
<semilocal-potentials set="scalar_relativistic">
<slps n="3" l="s" rc="1.35823401706" eref="-4.72695800082">
<radfunc>
<data npts="290">
 -3.231565107533E+01 -3.231552315102E+01 -3.231514045662E+01 -3.231450108299E+01
 -3.231361025086E+01 -3.231243556457E+01 -3.231093294409E+01 -3.230920474002E+01
 -3.230725189320E+01 -3.230496162729E+01 -3.230236338575E+01 -3.229951915229E+01
 -3.229605371731E+01 -3.229240164030E+01 -3.228805034061E+01 -3.228365809332E+01
 -3.227854252086E+01 -3.227363628048E+01 -3.226805407822E+01 -3.226169597363E+01
 -3.225444566002E+01 -3.224791258034E+01 -3.224064221863E+01 -3.223254390852E+01
 -3.222351457066E+01 -3.221343683532E+01 -3.220217686502E+01 -3.219286490290E+01
 -3.218273000020E+01 -3.217169203062E+01 -3.215966227900E+01 -3.214654246397E+01
 -3.213222365073E+01 -3.211658504366E+01 -3.209949264753E+01 -3.208079778645E+01
 -3.206033546898E+01 -3.203792258881E+01 -3.202179756996E+01 -3.200465017812E+01
 -3.198641011306E+01 -3.196700205700E+01 -3.194634533578E+01 -3.192435356289E+01
 -3.190093426688E+01 -3.187598850266E+01 -3.184941044744E+01 -3.182108698272E+01
 -3.179089726394E+01 -3.175871227986E+01 -3.172439440457E+01 -3.168779694523E+01
 -3.164876368985E+01 -3.160712845959E+01 -3.156271467143E+01 -3.151533491746E+01
 -3.146479056826E+01 -3.141087140839E+01 -3.135335531313E+01 -3.129200797612E+01
 -3.122658269832E+01 -3.115682024894E+01 -3.108244880934E+01 -3.100318401035E+01
 -3.091872907339E+01 -3.082877506407E+01 -3.073300126606E+01 -3.068282862115E+01
 -3.063107568078E+01 -3.057769928544E+01 -3.052265565620E+01 -3.046590042148E+01
 -3.040738864577E+01 -3.034707486037E+01 -3.028491309596E+01 -3.022085691717E+01
 -3.015485945887E+01 -3.008687346436E+01 -3.001685132525E+01 -2.994474512315E+01
 -2.987050667303E+01 -2.979408756843E+01 -2.971543922835E+01 -2.963451294605E+01
 -2.955125993984E+01 -2.946563140586E+01 -2.937757857330E+01 -2.928705276204E+01
 -2.919400544320E+01 -2.909838830279E+01 -2.900015330916E+01 -2.889925278433E+01
 -2.879563948020E+01 -2.868926665994E+01 -2.858008818539E+01 -2.846805861119E+01
 -2.835313328647E+01 -2.823526846490E+01 -2.811442142400E+01 -2.799055059465E+01
 -2.786361570162E+01 -2.773357791613E+01 -2.760040002114E+01 -2.746404659031E+01
 -2.732448418115E+01 -2.718168154309E+01 -2.703560984068E+01 -2.688624289229E+01
 -2.673355742402E+01 -2.657753333869E+01 -2.641815399898E+01 -2.625540652385E+01
 -2.608928209642E+01 -2.591977628151E+01 -2.574688935017E+01 -2.557062660804E+01
 -2.539099872377E+01 -2.520802205315E+01 -2.502171895390E+01 -2.483211808544E+01
 -2.463925468732E+01 -2.444317082959E+01 -2.424391562779E+01 -2.404154541493E+01
 -2.383612386289E+01 -2.362772204537E+01 -2.341641843536E+01 -2.320229883045E+01
 -2.298545620056E+01 -2.276599045447E+01 -2.254400812328E+01 -2.231962196224E+01
 -2.209295047546E+01 -2.186411737233E+01 -2.163325096951E+01 -2.140048355798E+01
 -2.116595076098E+01 -2.092979091596E+01 -2.069214452112E+01 -2.045315379519E+01
 -2.021296240732E+01 -1.997171544174E+01 -1.972955966941E+01 -1.948664420533E+01
 -1.924312163491E+01 -1.899914969582E+01 -1.875489360171E+01 -1.851052909116E+01
 -1.826624627799E+01 -1.802225436805E+01 -1.777878729115E+01 -1.753611027661E+01
 -1.729452737529E+01 -1.705438990280E+01 -1.681610574697E+01 -1.658014945161E+01