<?xml version="1.0" encoding="UTF-8" ?>
<psml version="1.1" energy_unit="hartree" length_unit="bohr"
 uuid="f1937fc0-23d2-11e8-7d2b-8c69d3ed05cf"
 xmlns="http://esl.cecam.org/PSML/ns/1.1">
<provenance creator="ONCVPSP-3.3.0+psml-3.3.0-73 (scalar-relativistic)"
 date="2018-03-09">
<annotation action="semilocal-pseudopotential-generation"
 action-cont="projectors-generation" />
<input-file name="oncvpsp-input">
<![CDATA[# atsym z nc nv iexc psfile
Zr 40 6 4 -001012 upf
# n l f
1 0 2.0
2 0 2.0
2 1 6.0
3 0 2.0
3 1 6.0
3 2 10.0
4 0 2.0
4 1 6.0
4 2 2.0
5 0 2.0
# lmax
2
# l rc ep ncon nbas qcut
0 1.55 0.0 4 8 7.4
1 1.55 0.0 4 8 8.0
2 1.5 0.0 4 8 7.8
# lloc lpopt rc5 dvloc0
4 5 1.45 0.0
# l nproj debl
0 2 1.0
1 2 2.0
2 2 2.0
# icmod fcfact rcfact
3 5.0 1.35
# epsh1 epsh2 depsh
-12.0 12.0 0.02
# rlmax drl
6.0 0.01
 0
]]>
</input-file>
</provenance>
<pseudo-atom-spec atomic-label="Zr" atomic-number="40" z-pseudo="12"
 flavor="Hamann&apos;s oncvpsp" relativity="scalar" spin-dft="no"
 core-corrections="yes">
<annotation pseudo-energy="-47.2243704650" />
<exchange-correlation>
<annotation oncvpsp-xc-code="-1012" oncvpsp-xc-type="libxc-interface" />
<libxc-info number-of-functionals="2">
<functional name="Slater exchange (LDA)" type="exchange" id="1" />
<functional name="Perdew &amp; Wang (LDA)" type="correlation" id="12" />
</libxc-info>
</exchange-correlation>
<valence-configuration total-valence-charge="12">
<shell n="4" l="s" occupation="2" />
<shell n="4" l="p" occupation="6" />
<shell n="4" l="d" occupation="2" />
<shell n="5" l="s" occupation="2" />
</valence-configuration>
</pseudo-atom-spec>
<grid npts="457">
<annotation type="sampled from oncvpsp log grid"
 recipe="r(i:1..N) = r1*exp(a*(i-1)) + r=0; resampled"
 recipe-cont="r1: scale; a: step" scale="0.125000000000E-04"
 step="0.119285708653E-01" delta="0.500000000000E-02" rmax="44.1649575951" />
<grid-data>
  0.000000000000E+00  5.043218706865E-03  1.007343358937E-02  1.511175669823E-02
  2.012089306008E-02  2.523928167219E-02  3.054676265355E-02  3.567071815465E-02
  4.067218371481E-02  4.582501498060E-02  5.101844624570E-02  5.612693518305E-02
  6.174693831073E-02  6.712418346252E-02  7.296970714298E-02  7.838368526344E-02
  8.419935280047E-02  8.937402475208E-02  9.486671850454E-02  1.006969788457E-01
  1.068855517351E-01  1.121091483444E-01  1.175880269923E-01  1.233346635500E-01
  1.293621435963E-01  1.356841922146E-01  1.423152052457E-01  1.475002787239E-01
  1.528742637588E-01  1.584440431028E-01  1.642167502724E-01  1.701997786849E-01
  1.764007911272E-01  1.828277295701E-01  1.894888253401E-01  1.963926096616E-01
  2.035479245832E-01  2.109639343024E-01  2.160574475322E-01  2.212739385454E-01
  2.266163765177E-01  2.320878023123E-01  2.376913302113E-01  2.434301496880E-01
  2.493075272220E-01  2.553268081593E-01  2.614914186155E-01  2.678048674265E-01
  2.742707481457E-01  2.808927410889E-01  2.876746154297E-01  2.946202313447E-01
  3.017335422103E-01  3.090185968534E-01  3.164795418558E-01  3.241206239144E-01
  3.319461922582E-01  3.399607011241E-01  3.481687122920E-01  3.565748976816E-01
  3.651840420112E-01  3.740010455215E-01  3.830309267646E-01  3.922788254604E-01
  4.017500054223E-01  4.114498575532E-01  4.213839029140E-01  4.264405097490E-01
  4.315577958659E-01  4.367364894163E-01  4.419773272893E-01  4.472810552168E-01
  4.526484278794E-01  4.580802090140E-01  4.635771715221E-01  4.691400975804E-01
  4.747697787514E-01  4.804670160964E-01  4.862326202895E-01  4.920674117330E-01
  4.979722206738E-01  5.039478873219E-01  5.099952619697E-01  5.161152051134E-01
  5.223085875747E-01  5.285762906256E-01  5.349192061131E-01  5.413382365865E-01
  5.478342954255E-01  5.544083069706E-01  5.610612066543E-01  5.677939411341E-01
  5.746074684278E-01  5.815027580489E-01  5.884807911455E-01  5.955425606392E-01
  6.026890713669E-01  6.099213402233E-01  6.172403963060E-01  6.246472810616E-01
  6.321430484344E-01  6.397287650156E-01  6.474055101958E-01  6.551743763181E-01
  6.630364688340E-01  6.709929064600E-01  6.790448213375E-01  6.871933591935E-01
  6.954396795039E-01  7.037849556579E-01  7.122303751258E-01  7.207771396273E-01
  7.294264653028E-01  7.381795828865E-01  7.470377378811E-01  7.560021907357E-01
  7.650742170245E-01  7.742551076288E-01  7.835461689203E-01  7.929487229474E-01
  8.024641076228E-01  8.120936769142E-01  8.218388010372E-01  8.317008666496E-01
  8.416812770494E-01  8.517814523740E-01  8.620028298025E-01  8.723468637602E-01
  8.828150261253E-01  8.934088064388E-01  9.041297121160E-01  9.149792686614E-01
  9.259590198854E-01  9.370705281240E-01  9.483153744615E-01  9.596951589550E-01
  9.712115008625E-01  9.828660388728E-01  9.946604313393E-01  1.006596356515E+00
  1.018675512794E+00  1.030899618947E+00  1.043270414374E+00  1.055789659347E+00
  1.068459135259E+00  1.081280644882E+00  1.094256012621E+00  1.107387084772E+00
  1.120675729790E+00  1.134123838547E+00  1.147733324610E+00  1.161506124505E+00
  1.175444197999E+00  1.189549528375E+00  1.203824122715E+00  1.218270012188E+00
  1.232889252334E+00  1.247683923362E+00  1.262656130443E+00  1.277808004008E+00
  1.293141700056E+00  1.308659400457E+00  1.324363313262E+00  1.340255673021E+00
  1.356338741098E+00  1.372614805991E+00  1.389086183663E+00  1.405755217867E+00
  1.422624280481E+00  1.439695771847E+00  1.456972121109E+00  1.474455786562E+00
  1.492149256001E+00  1.510055047073E+00  1.528175707638E+00  1.546513816130E+00
  1.565071981923E+00  1.583852845706E+00  1.602859079855E+00  1.622093388813E+00
  1.641558509479E+00  1.661257211592E+00  1.681192298131E+00  1.701366605709E+00
  1.721783004978E+00  1.742444401037E+00  1.763353733850E+00  1.784513978656E+00
  1.805928146400E+00  1.827599284157E+00  1.849530475566E+00  1.871724841273E+00
  1.894185539369E+00  1.916915765841E+00  1.939918755031E+00  1.963197780091E+00
  1.986756153453E+00  2.010597227294E+00  2.034724394022E+00  2.059141086750E+00
  2.083850779791E+00  2.108856989148E+00  2.134163273018E+00  2.159773232294E+00
  2.185690511082E+00  2.211918797215E+00  2.238461822781E+00  2.265323364655E+00
  2.292507245031E+00  2.320017331971E+00  2.347857539955E+00  2.376031830434E+00
  2.404544212399E+00  2.433398742948E+00  2.462599527863E+00  2.492150722198E+00
  2.522056530864E+00  2.552321209235E+00  2.582949063745E+00  2.613944452510E+00
  2.645311785940E+00  2.677055527372E+00  2.709180193700E+00  2.741690356025E+00
  2.774590640297E+00  2.807885727980E+00  2.841580356716E+00  2.875679320997E+00
  2.910187472849E+00  2.945109722523E+00  2.980451039193E+00  3.016216451664E+00
  3.052411049083E+00  3.089039981672E+00  3.126108461453E+00  3.163621762990E+00
  3.201585224146E+00  3.240004246836E+00  3.278884297798E+00  3.318230909371E+00
  3.358049680284E+00  3.398346276447E+00  3.439126431764E+00  3.480395948946E+00
  3.522160700333E+00  3.564426628737E+00  3.607199748282E+00  3.650486145261E+00
  3.694291979004E+00  3.738623482752E+00  3.783486964545E+00  3.828888808120E+00
  3.874835473817E+00  3.921333499503E+00  3.968389501497E+00  4.016010175515E+00
  4.064202297621E+00  4.112972725193E+00  4.162328397895E+00  4.212276338670E+00
  4.262823654734E+00  4.313977538591E+00  4.365745269054E+00  4.418134212282E+00
  4.471151822830E+00  4.524805644704E+00  4.579103312440E+00  4.634052552190E+00
  4.689661182816E+00  4.745937117010E+00  4.802888362414E+00  4.860523022763E+00
  4.918849299036E+00  4.977875490624E+00  5.037609996512E+00  5.098061316470E+00
  5.159238052268E+00  5.221148908895E+00  5.283802695802E+00  5.347208328151E+00
  5.411374828089E+00  5.476311326026E+00  5.542027061938E+00  5.608531386682E+00
  5.675833763322E+00  5.743943768482E+00  5.812871093703E+00  5.882625546828E+00
  5.953217053390E+00  6.024655658030E+00  6.096951525927E+00  6.170114944238E+00
  6.244156323569E+00  6.319086199452E+00  6.394915233845E+00  6.471654216651E+00
  6.549314067251E+00  6.627905836058E+00  6.707440706091E+00  6.787929994564E+00
  6.869385154499E+00  6.951817776353E+00  7.035239589669E+00  7.119662464745E+00
  7.205098414322E+00  7.291559595294E+00  7.379058310437E+00  7.467607010162E+00
  7.557218294284E+00  7.647904913816E+00  7.739679772782E+00  7.832555930055E+00
  7.926546601216E+00  8.021665160430E+00  8.117925142355E+00  8.215340244064E+00
  8.313924326992E+00  8.413691418916E+00  8.514655715943E+00  8.616831584535E+00
  8.720233563549E+00  8.824876366312E+00  8.930774882707E+00  9.037944181300E+00
  9.146399511475E+00  9.256156305613E+00  9.367230181280E+00  9.479636943456E+00
  9.593392586777E+00  9.708513297819E+00  9.825015457392E+00  9.942915642881E+00
  1.006223063060E+01  1.018297739816E+01  1.030517312694E+01  1.042883520446E+01
  1.055398122692E+01  1.068062900164E+01  1.080879654966E+01  1.093850210826E+01
  1.106976413356E+01  1.120260130316E+01  1.133703251880E+01  1.147307690902E+01
  1.161075383193E+01  1.175008287791E+01  1.189108387245E+01  1.203377687892E+01
  1.217818220146E+01  1.232432038788E+01  1.247221223254E+01  1.262187877933E+01
  1.277334132468E+01  1.292662142057E+01  1.308174087762E+01  1.323872176815E+01
  1.339758642937E+01  1.355835746652E+01  1.372105775612E+01  1.388571044920E+01
  1.405233897459E+01  1.422096704228E+01  1.439161864679E+01  1.456431807055E+01
  1.473908988740E+01  1.491595896604E+01  1.509495047364E+01  1.527608987932E+01
  1.545940295787E+01  1.564491579337E+01  1.583265478289E+01  1.602264664028E+01
  1.621491839997E+01  1.640949742077E+01  1.660641138981E+01  1.680568832649E+01
  1.700735658641E+01  1.721144486545E+01  1.741798220383E+01  1.762699799028E+01
  1.783852196616E+01  1.805258422976E+01  1.826921524051E+01  1.848844582340E+01
  1.871030717328E+01  1.893483085936E+01  1.916204882967E+01  1.939199341563E+01
  1.962469733662E+01  1.986019370465E+01  2.009851602911E+01  2.033969822146E+01
  2.058377460012E+01  2.083077989532E+01  2.108074925406E+01  2.133371824511E+01
  2.158972286405E+01  2.184879953842E+01  2.211098513288E+01  2.237631695448E+01
  2.264483275793E+01  2.291657075103E+01  2.319156960004E+01  2.346986843524E+01
  2.375150685646E+01  2.403652493874E+01  2.432496323800E+01  2.461686279686E+01
  2.491226515042E+01  2.521121233223E+01  2.551374688021E+01  2.581991184278E+01
  2.612975078489E+01  2.644330779431E+01  2.676062748784E+01  2.708175501769E+01
  2.740673607791E+01  2.773561691084E+01  2.806844431377E+01  2.840526564554E+01
  2.874612883328E+01  2.909108237928E+01  2.944017536783E+01  2.979345747225E+01
  3.015097896191E+01  3.051279070946E+01  3.087894419797E+01  3.124949152835E+01
  3.162448542669E+01  3.200397925181E+01  3.238802700283E+01  3.277668332686E+01
  3.317000352679E+01  3.356804356911E+01  3.397086009194E+01  3.437851041304E+01
  3.479105253800E+01  3.520854516845E+01  3.563104771047E+01  3.605862028300E+01
  3.649132372639E+01  3.692921961111E+01  3.737237024644E+01  3.782083868940E+01
  3.827468875368E+01  3.873398501872E+01  3.919879283894E+01  3.966917835301E+01
  4.014520849325E+01  4.062695099517E+01  4.111447440711E+01  4.160784809999E+01
  4.210714227719E+01  4.261242798452E+01  4.312377712033E+01  4.364126244578E+01
  4.416495759513E+01
</grid-data>
</grid>
<valence-charge total-charge="12" is-unscreening-charge="yes"
 rescaled-to-z-pseudo="no">
<radfunc>
<data npts="457">
  9.538570173393E-02  9.568778931614E-02  9.659116927275E-02  9.809944815917E-02
  1.001988232570E-01  1.029634420338E-01  1.064937707397E-01  1.105457438039E-01
  1.151137950177E-01  1.204569673799E-01  1.265004254974E-01  1.330942399508E-01
  1.410979863100E-01  1.494976733199E-01  1.594596502278E-01  1.694660673753E-01
  1.810596917856E-01  1.921193338752E-01  2.046339633975E-01  2.188017632081E-01
  2.348494782235E-01  2.492144976679E-01  2.650984682896E-01  2.826692401774E-01
  3.021143986030E-01  3.236437320867E-01  3.474920117955E-01  3.670570139442E-01
  3.881960371896E-01  4.110423788432E-01  4.357412307829E-01  4.624507484213E-01
  4.913432005713E-01  5.226062006510E-01  5.564440176798E-01  5.930789628577E-01
  6.327528440322E-01  6.757284758615E-01  7.063531508350E-01  7.386620495406E-01
  7.727505844361E-01  8.087193359596E-01  8.466742451996E-01  8.867267957612E-01
  9.289941806416E-01  9.735994492119E-01  1.020671628601E+00  1.070345812878E+00
  1.122763212440E+00  1.178071154897E+00  1.236423027547E+00  1.297978150216E+00
  1.362901565798E+00  1.431363734293E+00  1.503540114541E+00  1.579610616087E+00
  1.659758901879E+00  1.744171520672E+00  1.833036846187E+00  1.926543798362E+00
  2.024880320350E+00  2.128231583486E+00  2.236777891321E+00  2.350692253013E+00
  2.470137596220E+00  2.595263590100E+00  2.726203050430E+00  2.793888742769E+00
  2.863067901371E+00  2.933750513665E+00  3.005944672215E+00  3.079656407488E+00
  3.154889512923E+00  3.231645362315E+00  3.309922719585E+00  3.389717541059E+00
  3.471022770428E+00  3.553828126636E+00  3.638119885001E+00  3.723880651958E+00
  3.811089133889E+00  3.899719900595E+00  3.989743144072E+00  4.081124433318E+00
  4.173824466067E+00  4.267798818398E+00  4.362997693328E+00  4.459365669624E+00
  4.556841452169E+00  4.655357625409E+00  4.754840411498E+00  4.855209434941E+00
  4.956377495672E+00  5.058250352645E+00  5.160726520191E+00  5.263697079523E+00
  5.367045507929E+00  5.470647528336E+00  5.574370982050E+00  5.678075727636E+00
  5.781613568973E+00  5.884828215659E+00  5.987555278999E+00  6.089622306889E+00
  6.190848860930E+00  6.291046639140E+00  6.390019647597E+00  6.487564424303E+00
  6.583470318462E+00  6.677519828260E+00  6.769489000007E+00  6.859147891364E+00
  6.946261101008E+00  7.030588366854E+00  7.111885234520E+00  7.189903797290E+00
  7.264393508376E+00  7.335102065675E+00  7.401776368652E+00  7.464163546290E+00
  7.522012054340E+00  7.575072839330E+00  7.623100565973E+00  7.665854903749E+00
  7.703101867555E+00  7.734615206367E+00  7.760177832938E+00  7.779583286592E+00
  7.792637220192E+00  7.799158901477E+00  7.798982717972E+00  7.791959673844E+00
  7.777958866217E+00  7.756868927714E+00  7.728599421279E+00  7.693082172766E+00
  7.650272526287E+00  7.600150506945E+00  7.542721875379E+00  7.478019058448E+00
  7.406101940518E+00  7.327058500052E+00  7.241005276700E+00  7.148087654748E+00
  7.048479949661E+00  6.942385285578E+00  6.830035252934E+00  6.711689336991E+00
  6.587634109859E+00  6.458182180679E+00  6.323670900978E+00  6.184460824751E+00
  6.040933925716E+00  5.893491577196E+00  5.742552303417E+00  5.588549314493E+00
  5.431927841008E+00  5.273142287912E+00  5.112653231262E+00  4.950924285186E+00
  4.788418870177E+00  4.625596917348E+00  4.462911546516E+00  4.300805758762E+00
  4.139709186332E+00  3.980034944273E+00  3.822176628898E+00  3.666505507979E+00
  3.513367946326E+00  3.363083108187E+00  3.215940974584E+00  3.072200709378E+00
  2.932089402741E+00  2.795801214822E+00  2.663496853267E+00  2.535303130821E+00
  2.411312788687E+00  2.291586243574E+00  2.176157532095E+00  2.065042123511E+00
  1.958238956441E+00  1.855730687390E+00  1.757485289683E+00  1.663457161364E+00
  1.573588304449E+00  1.487809482110E+00  1.406041354674E+00  1.328195589858E+00
  1.254175941125E+00  1.183879290217E+00  1.117196649895E+00  1.054014123566E+00
  9.942138190350E-01  9.376747141397E-01  8.842734725375E-01  8.338852083825E-01
  7.863841990891E-01  7.416445457940E-01  6.995407815252E-01  6.599484274439E-01
  6.227444978592E-01  5.878079550126E-01  5.550201148971E-01  5.242650056163E-01
  4.954296799909E-01  4.684044843044E-01  4.430832852222E-01  4.193636570448E-01
  3.971470315486E-01  3.763388127381E-01  3.568484588788E-01  3.385895342070E-01
  3.214797327112E-01  3.054408763685E-01  2.903988901850E-01  2.762837563384E-01
  2.630294496626E-01  2.505738566359E-01  2.388586799574E-01  2.278293306689E-01
  2.174348097615E-01  2.076275809886E-01  1.983634365820E-01  1.896013574212E-01
  1.813033690967E-01  1.734343951956E-01  1.659621090242E-01  1.588567848704E-01
  1.520911498026E-01  1.456402368947E-01  1.394812406661E-01  1.335933754319E-01
  1.279577371627E-01  1.225571693712E-01  1.173761334579E-01  1.124005838753E-01
  1.076178483984E-01  1.030165137246E-01  9.858631656587E-02  9.431804034297E-02
  9.020341754161E-02  8.623503774503E-02  8.240626131927E-02  7.871113869107E-02
  7.514433512745E-02  7.170106089906E-02  6.837700668581E-02  6.516828406349E-02
  6.207137089346E-02  5.908306142387E-02  5.620042090003E-02  5.342074447323E-02
  5.074152019149E-02  4.816039585165E-02  4.567514949062E-02  4.328366329301E-02
  4.098390069416E-02  3.877388645972E-02  3.665168952733E-02  3.461540840056E-02
  3.266315889093E-02  3.079306401083E-02  2.900324582673E-02  2.729181909019E-02
  2.565688647191E-02  2.409653523259E-02  2.260883517284E-02  2.119183771298E-02
  1.984357596251E-02  1.856206564740E-02  1.734530677220E-02  1.619128590273E-02
  1.509797896305E-02  1.406335444874E-02  1.308537696640E-02  1.216201101725E-02
  1.129122494966E-02  1.047099501295E-02  9.699309451480E-03  8.974172584396E-03
  8.293608822903E-03  7.655666582524E-03  7.058422053490E-03  6.499982797591E-03
  5.978491144728E-03  5.492127366991E-03  5.039112612393E-03  4.617711584339E-03
  4.226234956627E-03  3.863041517151E-03  3.526540036610E-03  3.215190861352E-03
  2.927507232088E-03  2.662056332508E-03  2.417460073937E-03  2.192395623972E-03
  1.985595688704E-03  1.795848559461E-03  1.621997936245E-03  1.462942540967E-03
  1.317635534421E-03  1.185083751492E-03  1.064346769590E-03  9.545358255170E-04
  8.548125961466E-04  7.643878582566E-04  6.825200427135E-04  6.085136979540E-04
  5.417178773333E-04  4.815244644487E-04  4.273664499974E-04  3.787161731055E-04
  3.350835393802E-04  2.960142272009E-04  2.610878929887E-04  2.299163853829E-04
  2.021419774246E-04  1.774356250082E-04  1.554952590115E-04  1.360441176817E-04
  1.188291250230E-04  1.036193201267E-04  9.020434160212E-05  7.839297051597E-05
  6.801173453410E-05  5.890357528333E-05  5.092658032041E-05  4.395278050802E-05
  3.786701305882E-05  3.256585001770E-05  2.795659151012E-05  2.395632269139E-05
  2.049103298584E-05  1.749479590673E-05  1.490900749403E-05  1.268168119735E-05
  1.076679686230E-05  9.123701348029E-06  7.716558208901E-06  6.513843811768E-06
  5.487887228288E-06  4.614451237144E-06  3.872351790281E-06  3.243113337617E-06
  2.710657463298E-06  2.261022360639E-06  1.882110759758E-06  1.563464019225E-06
  1.296060198391E-06  1.072134038365E-06  8.850168949969E-07  7.289947848282E-07
  5.991828234204E-07  4.914144532495E-07  4.021439744136E-07  3.283610046772E-07
  2.675156050800E-07  2.174529127865E-07  1.763562235274E-07  1.426975614959E-07
  1.151948646293E-07  9.277499767848E-08  7.454188425606E-08  5.974912218202E-08
  4.777651397819E-08  3.811000644608E-08  3.032459007125E-08  2.406976075575E-08
  1.905719333394E-08  1.505031874737E-08  1.185553492146E-08  9.314815591984E-09
  7.299511863692E-09  5.705168436304E-09  4.447200487900E-09  3.457298436397E-09
  2.680446468770E-09  2.072457084292E-09  1.597938176875E-09  1.228621601899E-09
  9.419929381434E-10  7.201714531242E-10  5.489972819978E-10  4.172896927246E-10
  3.162461749641E-10  2.389570847714E-10  1.800148158683E-10  1.352000529092E-10
  1.012306831259E-10  7.556147975643E-11  5.622479382558E-11  4.170426143544E-11
  3.083500510901E-11  2.272502615962E-11  1.669349045697E-11  1.222243662692E-11
  8.919113007515E-12  6.486702593213E-12  4.701644946379E-12  3.396128564070E-12
  2.444621535548E-12  1.753545146035E-12  1.253384914276E-12  8.926851531124E-13
  6.334937595210E-13  4.479195441274E-13  3.155399009548E-13  2.214559871003E-13
  1.548391983092E-13  1.078485531960E-13  4.955023575670E-14  3.390401957391E-14
  2.309948099260E-14  1.567027706364E-14  1.058405596243E-14  7.117146055934E-15
  4.764473833184E-15  3.175090180505E-15  2.106229454528E-15  1.390720814281E-15
  9.139759072406E-16  5.978133786995E-16  3.891417892950E-16  2.520788678589E-16
  1.624897598694E-16  1.042199586709E-16  6.650972929797E-17  4.222820034927E-17
  2.667328360285E-17  1.676023067589E-17  1.047576766081E-17  6.512781498155E-18
  4.027115033481E-18  2.476510620659E-18  1.514524836871E-18  9.210298751169E-19
  5.569328888586E-19  3.348375891518E-19  2.001417742122E-19  1.189277286246E-19
  7.024891458303E-20  4.124545795450E-20  2.406917396458E-20  1.395927717768E-20
  8.045427438356E-21  4.607731082164E-21  2.622067703944E-21  1.482470310614E-21
  8.326827390672E-22  4.646118195965E-22  2.575035840825E-22  1.417500425045E-22
  7.749519159864E-23  0.000000000000E+00  0.000000000000E+00  0.000000000000E+00
  0.000000000000E+00
</data>
</radfunc>
</valence-charge>
<pseudocore-charge matching-radius="0.831700866650"
 number-of-continuous-derivatives="4">
<annotation model-charge-form="Teter function with specified parameters" />
<radfunc>
<data npts="290">
  4.018676542026E+01  4.018420389623E+01  4.017654663829E+01  4.016377169598E+01
  4.014601013040E+01  4.012265551150E+01  4.009289025778E+01  4.005880632263E+01
  4.002048238677E+01  3.997579033505E+01  3.992541436559E+01  3.987065868525E+01
  3.980448267773E+01  3.973536792499E+01  3.965383614082E+01  3.957241121044E+01
  3.947864997971E+01  3.938977615749E+01  3.928986720416E+01  3.917758489597E+01
  3.905143731669E+01  3.893942620398E+01  3.881654691915E+01  3.868178313962E+01
  3.853403151630E+01  3.837209593367E+01  3.819468177994E+01  3.805062600381E+01
  3.789644874522E+01  3.773148392444E+01  3.755502855645E+01  3.736634181052E+01
  3.716464424715E+01  3.694911727675E+01  3.671890289097E+01  3.647310372529E+01
  3.621078351885E+01  3.593096804668E+01  3.573420713649E+01  3.552891400642E+01
  3.531477416776E+01  3.509146713215E+01  3.485866692614E+01  3.461604269311E+01
  3.436325939042E+01  3.409997859018E+01  3.382585939229E+01  3.354055945879E+01
  3.324373617903E+01  3.293504797508E+01  3.261415575751E+01  3.228072454115E+01
  3.193442523120E+01  3.157493658917E+01  3.120194738844E+01  3.081515876860E+01
  3.041428679691E+01  2.999906524466E+01  2.956924858472E+01  2.912461521536E+01
  2.866497091347E+01  2.819015251788E+01  2.770003184133E+01  2.719451980578E+01
  2.667357079269E+01  2.613718719508E+01  2.558542415367E+01  2.530380819840E+01
  2.501839445349E+01  2.472920684891E+01  2.443627355131E+01  2.413962712562E+01
  2.383930469704E+01  2.353534811300E+01  2.322780410466E+01  2.291672444738E+01
  2.260216611968E+01  2.228419146005E+01  2.196286832105E+01  2.163827021998E+01
  2.131047648547E+01  2.097957239922E+01  2.064564933202E+01  2.030880487338E+01
  1.996914295377E+01  1.962677395849E+01  1.928181483244E+01  1.893438917452E+01
  1.858462732074E+01  1.823266641498E+01  1.787865046615E+01  1.752273039081E+01
  1.716506403975E+01  1.680581620761E+01  1.644515862412E+01  1.608326992574E+01
  1.572033560646E+01  1.535654794644E+01  1.499210591718E+01  1.462721506203E+01
  1.426208735073E+01  1.389694100664E+01  1.353200030572E+01  1.316749534580E+01
  1.280366178521E+01  1.244074054981E+01  1.207897750720E+01  1.171862310759E+01
  1.135993199031E+01  1.100316255558E+01  1.064857650086E+01  1.029643832169E+01
  9.947014776684E+00  9.600574316951E+00  9.257386480062E+00  8.917721249199E+00
  8.581848378208E+00  8.250036683608E+00  7.922553304903E+00  7.599662934817E+00
  7.281627021426E+00  6.968702944475E+00  6.661143168529E+00  6.359194375958E+00
  6.063096583135E+00  5.773082243600E+00  5.489375342306E+00  5.212190485472E+00
  4.941731990912E+00  4.678192984096E+00  4.421754505529E+00  4.172584635403E+00
  3.930837641742E+00  3.696653158573E+00  3.470155400894E+00  3.251452423385E+00
  3.040635429991E+00  2.837778141579E+00  2.642936228909E+00  2.456146818098E+00
  2.277428075679E+00  2.106778880102E+00  1.944178586270E+00  1.789586889297E+00
  1.642943793192E+00  1.504169689569E+00  1.373165550810E+00  1.249813241275E+00
  1.133975949251E+00  1.025498741327E+00  9.242092397424E-01  8.299184220656E-01
  7.424215412539E-01  6.614991627754E-01  5.869183140502E-01  5.184337399890E-01
  4.557892569106E-01  3.987191956182E-01  3.469499229306E-01  3.002014295311E-01
  2.581889706331E-01  2.206247447068E-01  1.872195943853E-01  1.576847127137E-01
  1.317333371418E-01  1.090824131272E-01  8.945420893614E-02  7.257786322960E-02
  5.819084732550E-02  4.604032465213E-02  3.588439086229E-02  2.749317937118E-02
  2.064981870906E-02  1.515123003310E-02  1.080875540224E-02  7.448609955270E-03
  4.912153908302E-03  3.055983255174E-03  1.751841155890E-03  8.863551694469E-04
  3.606086546748E-04  8.955774806294E-05  1.308248081858E-06  3.626940723707E-05
  1.462039726871E-04  2.931957444451E-04  4.485573646556E-04  5.917019501431E-04
  7.090024847899E-04  7.926625662213E-04  8.396211398830E-04  8.505122614232E-04
  8.286987368197E-04  7.793957540706E-04  7.088974189588E-04  6.239155408918E-04
  5.310362029282E-04  4.362957283259E-04  3.448737704408E-04  2.608975545139E-04
  1.873479376628E-04  1.260550667661E-04  7.776912544145E-05  4.229006931053E-05
  1.863942066274E-05  5.257160620814E-06  2.075100119781E-07  1.378878631553E-06
  6.665394695041E-06  1.412007267081E-05  2.207267757830E-05  2.920851370810E-05
  3.460751025099E-05  3.774590094858E-05  3.846531918284E-05  3.691610090020E-05
  3.348289188552E-05  2.870122885558E-05  2.317359694687E-05  1.749260856019E-05
  1.217750453342E-05  7.628300208843E-06  4.099773439272E-06  1.695325347303E-06
  3.787443514996E-07  2.566155925935E-10  3.321002187243E-07  1.108310361848E-06
  2.063478370318E-06  2.965908879540E-06  3.641743010751E-06  3.988082439013E-06
  3.974746511976E-06  3.635816531915E-06  3.053376430322E-06  2.336694781961E-06
  1.600416565527E-06  9.451243427963E-07  4.429438799758E-07  1.298334222517E-07
  4.983727302336E-09  0.000000000000E+00  0.000000000000E+00  0.000000000000E+00
  0.000000000000E+00  0.000000000000E+00  0.000000000000E+00  0.000000000000E+00
  0.000000000000E+00  0.000000000000E+00  0.000000000000E+00  0.000000000000E+00
  0.000000000000E+00  0.000000000000E+00  0.000000000000E+00  0.000000000000E+00
  0.000000000000E+00  0.000000000000E+00  0.000000000000E+00  0.000000000000E+00
  0.000000000000E+00  0.000000000000E+00  0.000000000000E+00  0.000000000000E+00
  0.000000000000E+00  0.000000000000E+00  0.000000000000E+00  0.000000000000E+00
  0.000000000000E+00  0.000000000000E+00  0.000000000000E+00  0.000000000000E+00
  0.000000000000E+00  0.000000000000E+00  0.000000000000E+00  0.000000000000E+00
  0.000000000000E+00  0.000000000000E+00  0.000000000000E+00  0.000000000000E+00
  0.000000000000E+00  0.000000000000E+00  0.000000000000E+00  0.000000000000E+00
  0.000000000000E+00  0.000000000000E+00  0.000000000000E+00  0.000000000000E+00
  0.000000000000E+00  0.000000000000E+00
</data>
</radfunc>
</pseudocore-charge>
<semilocal-potentials set="scalar_relativistic">
<slps n="4" l="s" rc="1.56507198192" eref="-2.00350264534">
<radfunc>
<data npts="290">
  3.709139390785E+01  3.706813125986E+01  3.699870031861E+01  3.688322822889E+01
  3.672343138409E+01  3.651463043289E+01  3.625065801506E+01  3.595129562157E+01
  3.561834681326E+01  3.523487348970E+01  3.480870399991E+01  3.435262340679E+01
  3.381109799917E+01  3.325652491636E+01  3.261632241104E+01  3.199159420333E+01
  3.128968861671E+01  3.064101160432E+01  2.993038926840E+01  2.915431092626E+01
  2.830960660402E+01  2.758260325396E+01  2.680884702308E+01  2.598754883747E+01
  2.511827984275E+01  2.420102287448E+01  2.323622121578E+01  2.248196877820E+01
  2.170209251093E+01  2.089736879907E+01  2.006875710556E+01  1.921740251725E+01
  1.834463576028E+01  1.745197048327E+01  1.654109766725E+01  1.561387709246E+01
  1.467232587287E+01  1.371860415592E+01  1.307715267448E+01  1.243201060738E+01
  1.178390092833E+01  1.113356203415E+01  1.048174469097E+01  9.829208884249E+00
  9.176720603887E+00  8.525048596781E+00  7.874961119898E+00  7.227222727175E+00
  6.582591123070E+00  5.941814114713E+00  5.305626693115E+00  4.674748271986E+00
  4.049880110305E+00  3.431702942056E+00  2.820874833412E+00  2.218029284347E+00
  1.623773588079E+00  1.038687458114E+00  4.633219289575E-01 -1.018014671384E-01
 -6.561912486260E-01 -1.199386263021E+00 -1.730955703179E+00 -2.250498872582E+00
 -2.757644713561E+00 -3.252051114936E+00 -3.733404017862E+00 -3.969094673335E+00
 -4.201416340637E+00 -4.430337147253E+00 -4.655826744962E+00 -4.877856264308E+00
 -5.096398267553E+00 -5.311426700324E+00 -5.522916842157E+00 -5.730845256145E+00
 -5.935189737910E+00 -6.135929264093E+00 -6.333043940593E+00 -6.526514950750E+00
 -6.716324503695E+00 -6.902455783064E+00 -7.084892896303E+00 -7.263620824744E+00
 -7.438625374679E+00 -7.609893129614E+00 -7.777411403904E+00 -7.941168197962E+00
 -8.101152155216E+00 -8.257352520997E+00 -8.409759103526E+00 -8.558362237156E+00
 -8.703152748026E+00 -8.844121922252E+00 -8.981261476793E+00 -9.114563533100E+00
 -9.244020593638E+00 -9.369625521365E+00 -9.491371522231E+00 -9.609252130726E+00
 -9.723261198502E+00 -9.833392886061E+00 -9.939641657473E+00 -1.004200227806E+01
 -1.014046981497E+01 -1.023503964050E+01 -1.032570743799E+01 -1.041246921021E+01
 -1.049532128985E+01 -1.057426035194E+01 -1.064928342800E+01 -1.072038792130E+01
 -1.078757162323E+01 -1.085083273003E+01 -1.091016985971E+01 -1.096558206853E+01
 -1.101706886661E+01 -1.106463023217E+01 -1.110826662390E+01 -1.114797899088E+01
 -1.118376877967E+01 -1.121563793797E+01 -1.124358891451E+01 -1.126762465483E+01
 -1.128774859259E+01 -1.130396463634E+01 -1.131627715172E+01 -1.132469093928E+01
 -1.132921120834E+01 -1.132984354750E+01 -1.132659389288E+01 -1.131946849536E+01
 -1.130847388871E+01 -1.129361686076E+01 -1.127490443050E+01 -1.125234383460E+01
 -1.122594252740E+01 -1.119570819925E+01 -1.116164881901E+01 -1.112377270725E+01
 -1.108208864762E+01 -1.103660604502E+01 -1.098733514004E+01 -1.093428729015E+01
 -1.087747532927E+01 -1.081691401803E+01 -1.075262059815E+01 -1.068461546463E+01
 -1.061292297035E+01 -1.053757237732E+01 -1.045859896893E+01 -1.037604533652E+01
 -1.028996285214E+01 -1.020041333752E+01 -1.010747093555E+01 -1.001122418693E+01